LAMMPS data file via write_data, version 19 Sep 2019, timestep = 500000

48 atoms
2 atom types
32 bonds
1 bond types
16 angles
1 angle types

0.0 9.5368475 xlo xhi
0.0 7.5213974 ylo yhi
0.0 7.2890245 zlo zhi

Masses

1 1.00794
2 15.9994

Atoms # full

7 1 2 -1.1794000000000000e+00 5.3493057491751648e+00 1.1247797919584785e+00 6.2629962052287915e+00 0 0 0
36 1 1 5.8970000000000000e-01 2.4034076099427968e+00 5.5802050239147318e+00 6.4684155551271774e+00 0 0 0
9 1 1 5.8970000000000000e-01 6.1312066671987848e+00 1.5004575855106563e+00 6.6676453945608172e+00 0 0 0
37 1 2 -1.1794000000000000e+00 8.3119517071116356e+00 1.6826338586196004e+00 2.8593301372670399e+00 0 0 0
8 1 1 5.8970000000000000e-01 5.5817085804170663e+00 1.0238021554637111e+00 5.3398737200040456e+00 0 0 0
39 1 1 5.8970000000000000e-01 9.0553540700548361e+00 1.0877138883193065e+00 2.7617601844460484e+00 0 0 0
38 1 1 5.8970000000000000e-01 8.0001246379230082e+00 1.8255924231391578e+00 1.9656508912761226e+00 0 0 0
32 1 1 5.8970000000000000e-01 1.4598038403016158e+00 1.2357870672509030e+00 6.4215803732887879e+00 0 0 0
18 1 1 5.8970000000000000e-01 7.9360147996130879e+00 5.0471056161291799e+00 5.1141334989451881e+00 0 0 0
16 1 2 -1.1794000000000000e+00 7.9857330270478810e+00 5.0351037410098645e+00 6.0700257413254830e+00 0 0 0
34 1 2 -1.1794000000000000e+00 3.2063483184988724e+00 5.1210709164001358e+00 6.2221510337298103e+00 0 0 0
14 1 1 5.8970000000000000e-01 7.8621224908965273e+00 3.1134953334023749e+00 7.1525022214451051e+00 0 0 0
26 1 1 5.8970000000000000e-01 8.0179901763068706e+00 3.6794882040681576e+00 2.7725277954154177e+00 0 0 0
47 1 1 5.8970000000000000e-01 5.5980495385754558e+00 7.1753267163349701e+00 6.6150844304870322e+00 0 0 0
27 1 1 5.8970000000000000e-01 8.8585274230642668e+00 4.9348743598598013e+00 2.8664830091927587e+00 0 0 0
19 1 2 -1.1794000000000000e+00 5.7535709318954229e+00 6.2105273152358240e+00 2.5897998686274271e+00 0 0 0
20 1 1 5.8970000000000000e-01 6.4341097605056738e+00 5.5742568813716211e+00 2.8091747521849855e+00 0 0 0
21 1 1 5.8970000000000000e-01 5.8306347012181323e+00 6.3274355532417514e+00 1.6428205746348099e+00 0 0 0
25 1 2 -1.1794000000000000e+00 8.0075345132645701e+00 4.5734303911231793e+00 3.1141931586482792e+00 0 0 0
5 1 1 5.8970000000000000e-01 4.3173975469219021e+00 1.4374579065128312e+00 2.7408477393700545e+00 0 0 0
45 1 1 5.8970000000000000e-01 1.1455484583134556e+00 5.5543220885601423e+00 2.4396345391788032e-01 0 0 0
6 1 1 5.8970000000000000e-01 3.6784132211727960e+00 2.7945615572587434e+00 2.9439621830709899e+00 0 0 0
4 1 2 -1.1794000000000000e+00 3.5766390903586514e+00 1.9748671462123994e+00 2.4604611229449014e+00 0 0 0
10 1 2 -1.1794000000000000e+00 3.5314263420169323e+00 4.7542787907960706e+00 3.5266064486153730e+00 0 0 0
11 1 1 5.8970000000000000e-01 4.1583939969908705e+00 5.4136534853118041e+00 3.2295915827343404e+00 0 0 0
12 1 1 5.8970000000000000e-01 3.5318042354778618e+00 4.8351298902465878e+00 4.4804576611710827e+00 0 0 0
35 1 1 5.8970000000000000e-01 3.1320369865624738e+00 4.2650396666927683e+00 6.6436720251511865e+00 0 0 0
41 1 1 5.8970000000000000e-01 3.2052676775264972e+00 2.3011413415790010e+00 7.3833769683040251e-01 0 0 0
42 1 1 5.8970000000000000e-01 3.7980984603170551e+00 1.8784276830776303e+00 6.6896690487477075e+00 0 0 0
40 1 2 -1.1794000000000000e+00 3.0559683337091945e+00 2.3461860431802126e+00 7.0725703086822174e+00 0 0 0
33 1 1 5.8970000000000000e-01 9.9010594608070424e-01 7.9371008589220002e+00 6.3155013428952742e+00 0 -1 0
13 1 2 -1.1794000000000000e+00 7.9444539877095126e+00 2.2084874327788180e+00 7.4528123611314649e+00 0 0 0
15 1 1 5.8970000000000000e-01 8.7696502572722927e+00 1.9044496575214389e+00 7.0748528261931893e+00 0 0 0
31 1 2 -1.1794000000000000e+00 7.3005316031189771e-01 6.9914325771861163e-01 6.1123408475781558e+00 0 0 0
17 1 1 5.8970000000000000e-01 7.1672377013842619e+00 5.4392193953544465e+00 6.3580449043944940e+00 0 0 0
23 1 1 5.8970000000000000e-01 8.4818748988105463e-01 8.4832131072468311e+00 4.1148254064024981e+00 0 -1 0
29 1 1 5.8970000000000000e-01 6.4641356477831957e+00 1.0012531858409914e+00 3.2549574287111569e+00 0 0 0
48 1 1 5.8970000000000000e-01 4.8005221385186605e+00 5.8927575142142796e+00 6.7177763124039425e+00 0 0 0
22 1 2 -1.1794000000000000e+00 8.7780306439713507e-01 8.2637695794593533e+00 3.1835441223808894e+00 0 -1 0
30 1 1 5.8970000000000000e-01 5.7397283747057708e+00 7.8139781072229217e+00 3.3762940725449102e+00 0 0 0
24 1 1 5.8970000000000000e-01 1.6602251429960191e+00 5.7164358964630446e-01 2.8570085679635429e+00 0 0 0
28 1 2 -1.1794000000000000e+00 5.6241743147173668e+00 6.1849368294524443e-01 3.5083031422883844e+00 0 0 0
44 1 1 5.8970000000000000e-01 5.2846648663683049e-03 5.7565887745414548e+00 6.5475219154658912e+00 0 0 0
3 1 1 5.8970000000000000e-01 8.1124669539166805e-01 6.0926144955737067e+00 2.5467769818108410e+00 0 0 0
1 1 2 -1.1794000000000000e+00 9.2313419249569151e-01 5.1788454240470090e+00 2.2851401954307069e+00 0 0 0
2 1 1 5.8970000000000000e-01 1.6685131017623540e+00 4.8711660328030870e+00 2.8008718077157964e+00 0 0 0
43 1 2 -1.1794000000000000e+00 8.4113902886709024e-01 6.1326899467497178e+00 6.8233479687098013e+00 0 0 0
46 1 2 -1.1794000000000000e+00 5.6571691678839802e+00 6.2695957846839958e+00 6.9187404658470033e+00 0 0 0

Velocities

7 -2.9401580459739252e-03 9.2029767341620175e-04 1.3554966004860286e-03
36 -2.1143893913118756e-03 -3.2842535507589406e-03 -2.5311420023649264e-02
9 8.6501439579732328e-03 4.7280826997122558e-03 -2.4706093708635302e-02
37 -3.7285780496372823e-03 5.9554957657993639e-03 7.9535223626981874e-04
8 -3.0439234310056174e-02 -5.3152581890277082e-03 -4.7775104811430573e-03
39 -1.6824182618651270e-03 7.3080656641987419e-03 8.4864205017162690e-03
38 -8.8609995576100706e-03 -1.2643900581805855e-02 -3.8605777299559362e-04
32 1.0695177416998058e-02 -1.8154644846857287e-02 6.4051244880965206e-03
18 8.0060420632335500e-03 1.4912554977628752e-02 5.4495206700530844e-03
16 7.7521744598561294e-04 4.6197335061880767e-03 5.7319955617970379e-03
34 5.3250321618831739e-03 -1.2455298665540460e-03 -4.0594863718048805e-03
14 2.3042054166887382e-02 9.2253904251708100e-03 -2.3826981309786523e-03
26 -7.1831132274593852e-03 9.3246767579517036e-03 -8.4068700055928668e-03
47 -2.9350710261929029e-02 -4.7670257230374392e-03 2.4453519301274037e-02
27 -8.4649945813275417e-03 1.0338512583550615e-02 -8.9680139787767683e-03
19 -1.8378021187546588e-03 -5.8853403756500668e-03 1.9587925961909963e-03
20 1.2349011507287518e-02 8.7339184819406283e-03 2.9171749555021462e-04
21 1.0434137774007349e-02 1.5341668263602205e-02 5.5312860229347702e-03
25 -4.4117738883751182e-03 6.5247770529760184e-03 -4.8682725842508852e-04
5 -8.4957997470267183e-03 -1.2090412837168239e-02 2.1573166883978941e-03
45 -1.6290208357310931e-02 -5.8975194448272154e-03 -5.3315023357870580e-03
6 1.2773505730933193e-02 -2.1986278388504547e-03 3.9061014301458650e-03
4 -1.3209542263072230e-03 -9.0091759581991326e-04 4.5170327602979234e-03
10 2.5718650309113009e-03 -1.3922283628275145e-03 -1.1539498279106797e-03
11 7.0706210776516221e-03 -9.6747150527064386e-03 -1.0040241892487378e-02
12 2.3352871961694589e-02 -7.0673851536092579e-03 -6.0384849160746658e-04
35 -5.4275679347853354e-03 -3.0899103005261278e-03 -9.6889101894549884e-03
41 8.5142728163887463e-03 -1.4518696179310587e-02 2.8815337769459185e-03
42 1.4817169122982388e-02 1.0888649205185700e-02 -2.2774737738794270e-03
40 8.6591593015145542e-03 -3.5821036972987453e-03 3.4366546354865726e-03
33 -1.0580685975203770e-02 -8.8102203162080724e-03 -2.7593844522029617e-02
13 -3.4145112724778661e-03 4.5756927572861809e-03 -9.0178065866561782e-03
15 -2.5213039315832950e-04 -8.9514272097900652e-03 8.8431621877576635e-03
31 -1.4879570717415004e-03 8.0312443851073662e-04 2.3124420926329795e-03
17 -8.8456388739067415e-03 -1.3626170365986536e-02 4.1969564432750807e-03
23 4.5823343051548263e-03 -2.2434554450781177e-03 2.8568252444797328e-03
29 1.7185372566616772e-02 -1.5763418837779698e-02 -2.2418817658123872e-02
48 1.4614999561888383e-02 -3.4482802290222249e-02 -5.2476771830319820e-03
22 -7.6322841088288214e-03 2.6877723618759438e-04 1.8675132869358107e-03
30 5.4370642693403774e-04 -2.1987604245320078e-03 3.0735219684186639e-02
24 -8.0571758375086351e-03 -4.4749741728441943e-03 -5.6994506748441224e-03
28 1.4067653431287181e-02 4.3932640123637871e-03 -2.2258912543576602e-03
44 -5.0398747607816726e-03 1.4576778388603715e-02 -1.4091320095155542e-02
3 9.2262847589031534e-03 -1.0197016930487749e-03 -4.5206487885523826e-03
1 -3.4382436557589607e-03 -3.5187776097464762e-03 -1.2694794134048850e-03
2 -1.0761139360040061e-02 -1.3462038797671551e-02 3.4477100363816231e-03
43 -4.8000757801003211e-03 4.7453987377229960e-03 -1.5592917327025889e-03
46 2.1007118237169270e-03 -1.0085307774368486e-02 2.3843807488735922e-03

Bonds

1 1 7 8
2 1 7 9
3 1 37 39
4 1 37 38
5 1 16 17
6 1 16 18
7 1 34 35
8 1 34 36
9 1 19 20
10 1 19 21
11 1 25 26
12 1 25 27
13 1 4 5
14 1 4 6
15 1 10 11
16 1 10 12
17 1 40 41
18 1 40 42
19 1 13 14
20 1 13 15
21 1 31 33
22 1 31 32
23 1 22 23
24 1 22 24
25 1 28 30
26 1 28 29
27 1 1 2
28 1 1 3
29 1 43 44
30 1 43 45
31 1 46 47
32 1 46 48

Angles

1 1 8 7 9
2 1 38 37 39
3 1 17 16 18
4 1 35 34 36
5 1 20 19 21
6 1 26 25 27
7 1 5 4 6
8 1 11 10 12
9 1 41 40 42
10 1 14 13 15
11 1 32 31 33
12 1 23 22 24
13 1 29 28 30
14 1 2 1 3
15 1 44 43 45
16 1 47 46 48
