LAMMPS data file via write_data, version 19 Sep 2019, timestep = 800000

48 atoms
2 atom types
32 bonds
1 bond types
16 angles
1 angle types

1.5427337800655394e-01 9.3291706219935087e+00 xlo xhi
4.6556263047413271e-01 8.4112513695247575e+00 ylo yhi
9.1864794009888229e-02 7.5831232059901303e+00 zlo zhi

Masses

1 1.00794
2 15.9994

Pair Coeffs # lj/cut/tip4p/long

1 0 0
2 0.21084 3.1668

Bond Coeffs # harmonic

1 450 0.9572

Angle Coeffs # harmonic

1 55 104.52

Atoms # full

21 7 1 5.8970000000000000e-01 3.3940499037582832e+00 1.6646077596161524e+00 6.5568494333004033e+00 2 2 2
20 7 1 5.8970000000000000e-01 2.2789673211184374e+00 1.2926505489514579e+00 5.6025345532103259e+00 2 2 2
26 9 1 5.8970000000000000e-01 1.0250832994963839e+00 2.4356814666819213e+00 6.9262627403849795e+00 0 2 2
6 2 1 5.8970000000000000e-01 5.2364441325834132e-01 2.9851870726618657e+00 1.6372371699825918e+00 -1 -1 1
12 4 1 5.8970000000000000e-01 4.2063253421935283e+00 2.3261009390802161e+00 2.9972319323541594e+00 3 0 -9
19 7 2 -1.1794000000000000e+00 2.4562380138319830e+00 1.4748889436207220e+00 6.5254790093325932e+00 2 2 2
7 3 2 -1.1794000000000000e+00 2.7002026195450930e+00 1.0995343947906140e+00 3.6283678019242296e+00 0 3 0
9 3 1 5.8970000000000000e-01 2.0203115353997259e+00 1.3573218019782969e+00 3.0057064654129517e+00 0 3 0
25 9 2 -1.1794000000000000e+00 2.5304392549587240e-01 2.8392826338453268e+00 7.3232093470134654e+00 0 2 2
4 2 2 -1.1794000000000000e+00 6.0279279303678535e-01 2.6905077598773013e+00 2.5445913842728460e+00 -1 -1 1
30 10 1 5.8970000000000000e-01 2.8358471370600444e+00 7.6718962927288041e+00 6.9266994647827582e+00 -3 0 1
32 11 1 5.8970000000000000e-01 7.0487076645089886e-01 5.3098559560602165e+00 4.1927162570553120e+00 3 1 -2
43 15 2 -1.1794000000000000e+00 3.1976003370498680e+00 6.3037599277997796e+00 2.3171398754986723e+00 1 0 7
45 15 1 5.8970000000000000e-01 3.1304825828770158e+00 6.3575137456738773e+00 1.3637209446016048e+00 1 0 7
44 15 1 5.8970000000000000e-01 2.3448241597453112e+00 5.9728831138752065e+00 2.5995168095256025e+00 1 0 7
28 10 2 -1.1794000000000000e+00 2.7253965149944142e+00 6.7401906418371187e+00 7.1167130477112952e+00 -3 0 1
29 10 1 5.8970000000000000e-01 3.4537801629039695e+00 6.3149105933509091e+00 6.6639479037854477e+00 -3 0 1
39 13 1 5.8970000000000000e-01 1.2983449629972095e+00 5.8681689412834483e+00 6.4328758291795731e+00 -3 -1 -3
2 1 1 5.8970000000000000e-01 4.4923316679434562e+00 5.5370778828877754e+00 3.1993678204627303e+00 0 -2 -2
37 13 2 -1.1794000000000000e+00 5.4060145644039403e-01 5.5569413038825912e+00 5.9375431186239265e+00 -3 -1 -3
31 11 2 -1.1794000000000000e+00 8.1274825475694179e-01 5.3734653695408037e+00 3.2436672324378608e+00 3 1 -2
8 3 1 5.8970000000000000e-01 2.9462551570268185e+00 8.1593167095601480e+00 3.3618876237026543e+00 0 2 0
38 13 1 5.8970000000000000e-01 4.0240401006733301e-01 4.6618258640320063e+00 6.2475058135862236e+00 -3 -1 -3
33 11 1 5.8970000000000000e-01 9.6206787808515548e-01 4.4720073807408465e+00 2.9581341351424211e+00 3 1 -2
46 16 2 -1.1794000000000000e+00 7.3396482750251790e+00 1.4128765944887343e+00 5.9117642833138913e+00 2 2 -2
47 16 1 5.8970000000000000e-01 7.5296302039134018e+00 1.3195768368326233e+00 4.9781781654435395e+00 2 2 -2
23 8 1 5.8970000000000000e-01 5.1745514584029593e+00 2.4124497286547473e+00 5.6830972633683574e-01 1 5 3
24 8 1 5.8970000000000000e-01 5.8437919778151368e+00 2.2105724426143074e+00 6.7165512760585733e+00 1 5 2
11 4 1 5.8970000000000000e-01 5.2311619732628909e+00 3.4339384077144008e+00 2.8759507540869382e+00 3 0 -9
17 6 1 5.8970000000000000e-01 6.4570721124409109e+00 1.6609106445177457e+00 3.0549006097111819e+00 -1 1 -1
16 6 2 -1.1794000000000000e+00 7.3365950003922391e+00 1.3002977076714055e+00 3.1680111731364202e+00 -1 1 -1
5 2 1 5.8970000000000000e-01 8.9225308100913843e+00 2.3122066032206101e+00 2.7495168441363473e+00 -2 -1 1
22 8 2 -1.1794000000000000e+00 5.0567334001817370e+00 2.5733042478836010e+00 7.1232652360469393e+00 1 5 2
10 4 2 -1.1794000000000000e+00 5.0254806995367689e+00 2.5548055209847016e+00 2.5578258593648355e+00 3 0 -9
27 9 1 5.8970000000000000e-01 8.7153542291134976e+00 2.2274359843903699e+00 7.1381424121662285e+00 -1 2 2
48 16 1 5.8970000000000000e-01 7.1409547681114249e+00 5.2395703509411085e-01 6.2062583368883804e+00 2 2 -2
34 12 2 -1.1794000000000000e+00 7.5086425072598866e+00 6.7434193528446507e+00 6.9067917161056869e+00 0 -2 -3
35 12 1 5.8970000000000000e-01 7.5281143528367469e+00 6.4504609161545021e+00 3.2667856102435916e-01 0 -2 -2
36 12 1 5.8970000000000000e-01 8.2729340738942945e+00 6.3298101080750255e+00 6.5053256697317865e+00 0 -2 -3
40 14 2 -1.1794000000000000e+00 7.4104267694971258e+00 6.2250565150039856e+00 2.6598692327848377e+00 -1 -1 1
42 14 1 5.8970000000000000e-01 6.7022032036455714e+00 5.7279626169441089e+00 3.0694005136260243e+00 -1 -1 1
41 14 1 5.8970000000000000e-01 8.2055587522798259e+00 5.7444250971840605e+00 2.8904861254591534e+00 -1 -1 1
14 5 1 5.8970000000000000e-01 5.6524610674067333e+00 5.7148512473756297e+00 6.7558118524004982e+00 -2 -8 4
1 1 2 -1.1794000000000000e+00 5.2767657311556659e+00 5.1547178280190646e+00 3.5929333547284377e+00 0 -2 -2
13 5 2 -1.1794000000000000e+00 4.8798109290678253e+00 5.3787081268288812e+00 6.3014714434872010e+00 -2 -8 4
3 1 1 5.8970000000000000e-01 5.1264701952772453e+00 5.2165331890115532e+00 4.5363278521177630e+00 0 -2 -2
18 6 1 5.8970000000000000e-01 7.2254617674881878e+00 8.3020516753105156e+00 3.0537107964482448e+00 -1 0 -1
15 5 1 5.8970000000000000e-01 4.8527258774895898e+00 4.4493545342508245e+00 6.5295199457776789e+00 -2 -8 4

Velocities

21 2.3533329573446797e-03 1.5353749990182219e-02 -2.4819425223393730e-02
20 -2.3807271024667766e-02 -4.0115835913493228e-04 1.1689273164625261e-02
26 2.1484640066478378e-03 2.1894288995614339e-02 -2.5482184368749623e-02
6 -1.7075932761185452e-03 -1.6759279635026863e-02 -8.5799158369914644e-03
12 -6.0004452485557880e-03 -3.4843549315405199e-03 -1.1218897391187754e-02
19 4.0961410373247398e-03 1.8423971162579457e-03 6.0018269990709779e-03
7 -9.1939566066119897e-04 -7.0501667141297415e-03 2.1661683384540499e-03
9 1.1901358919285204e-02 4.5554010103582288e-03 -7.0174708316445922e-03
25 2.5178630259141770e-03 -1.0466708719164320e-03 -8.1374064170117405e-04
4 -7.9217709465159835e-03 6.6085283904557934e-03 -8.0085149946939639e-04
30 3.0614001079268678e-04 3.7768380630282361e-03 -1.1973006739946637e-02
32 -2.3897916151173516e-03 7.8149468833106552e-03 -3.8354246099276215e-03
43 5.9338259145374408e-03 -5.7184003790419075e-04 1.3065992626251166e-03
45 2.1018816931451231e-02 1.5570748866142090e-03 3.6883189401902474e-04
44 -7.8490182822832030e-03 2.5024316820354744e-02 -1.0647120647245361e-02
28 2.0532190688511603e-04 4.5560223015239662e-03 -8.4162557583598429e-03
29 -7.7069960995230181e-03 1.3185540066253069e-03 -1.8179097577476867e-02
39 9.9915940717390152e-03 -1.0458709258011333e-02 -3.2725036353422458e-03
2 -6.9397587921995844e-03 -1.5714622099581205e-02 -1.3968678076259955e-02
37 3.6660097640959532e-03 -3.4580636910730993e-03 2.0135474420261167e-03
31 -4.8694155049008930e-03 1.9285448814517184e-03 -4.4253760441539149e-03
8 2.6316699646040291e-03 -3.0373264924969039e-03 -7.6300625688086599e-03
38 -1.1516318558910329e-02 2.9787243651943295e-03 1.3631874962099645e-02
33 1.9607372202263218e-02 3.2557996474031751e-03 3.7931239696436503e-03
46 -2.2802669205729009e-03 -3.2149524569157874e-03 -4.0764725906210480e-03
47 -1.2168809055630388e-02 -5.5231700590669579e-04 -6.2676995068130714e-03
23 2.3665807462404029e-02 1.2001402196456696e-02 3.9533108400000719e-03
24 9.6381240924104869e-03 3.3792511285370315e-02 -6.3062518837500303e-03
11 -3.3134797718456549e-03 -3.4378160324126631e-03 1.2963780302601488e-02
17 7.7308773183071286e-03 1.4369295311795838e-03 -2.6832762297834323e-02
16 3.6033384125484292e-03 -2.1045673211717787e-03 -7.1438610854341316e-03
5 -6.8081790014546575e-06 -1.3546733661597836e-02 -5.5665700986407491e-03
22 2.5790144798072891e-03 5.1897162238540859e-03 5.4463185087136896e-03
10 1.7755569916407163e-03 -1.4732292190063616e-03 4.4497960464772940e-03
27 7.3384174738459753e-03 -2.9900882178173862e-03 -1.2560037678212187e-02
48 -1.1548268478325193e-03 -3.7406212986136156e-03 -5.0491835496429332e-03
34 1.1601113256474945e-04 -1.8411467959050570e-03 8.9407755874635828e-03
35 1.2917444651088477e-02 1.1460813690232470e-02 1.2774654158424542e-02
36 8.2469324603718953e-03 1.2270670093094111e-02 1.0127562013947785e-02
40 -4.8120292405730308e-04 -8.0072682899688524e-03 -1.6101270107567922e-03
42 8.5022241078195806e-03 -2.1588956391974369e-02 -2.6134181503809626e-03
41 9.5810981294479625e-03 1.4738884359369004e-02 1.0659520501307335e-02
14 -1.0171898804213124e-02 5.5615479335514653e-03 1.1767266727264771e-02
1 -7.9613252793917615e-03 1.0339821042076377e-03 4.3562530557321446e-03
13 -1.7863718588185360e-03 1.0854053399702271e-03 7.5429678876093179e-04
3 -2.4864632349230455e-02 1.1376463454260221e-02 9.0514587424489013e-04
18 7.1582275889592265e-03 1.1716239625959499e-03 -3.6411193456176646e-02
15 -1.7732247150148872e-02 7.9183107331411012e-03 2.6246133062287774e-02

Bonds

1 1 19 20
2 1 19 21
3 1 7 8
4 1 7 9
5 1 25 26
6 1 25 27
7 1 4 5
8 1 4 6
9 1 43 44
10 1 43 45
11 1 28 30
12 1 28 29
13 1 37 39
14 1 37 38
15 1 31 33
16 1 31 32
17 1 46 47
18 1 46 48
19 1 16 17
20 1 16 18
21 1 22 23
22 1 22 24
23 1 10 11
24 1 10 12
25 1 34 35
26 1 34 36
27 1 40 41
28 1 40 42
29 1 1 2
30 1 1 3
31 1 13 14
32 1 13 15

Angles

1 1 20 19 21
2 1 8 7 9
3 1 26 25 27
4 1 5 4 6
5 1 44 43 45
6 1 29 28 30
7 1 38 37 39
8 1 32 31 33
9 1 47 46 48
10 1 17 16 18
11 1 23 22 24
12 1 11 10 12
13 1 35 34 36
14 1 41 40 42
15 1 2 1 3
16 1 14 13 15
