LAMMPS data file. CGCMM style. atom_style full generated by VMD/TopoTools v1.7 on Fri Dec 06 17:15:28 EST 2019
 48 atoms
 32 bonds
 16 angles
 0 dihedrals
 0 impropers
 2 atom types
 1 bond types
 1 angle types
 0 dihedral types
 0 improper types
 0.249472 9.233972  xlo xhi
 0.548007 8.328807  ylo yhi
 0.169594 7.505394  zlo zhi

 Masses

 1 1.007940 # 1
 2 15.999400 # 2

 Atoms # full

1 1 2 -0.847600 0.031000 7.031740 0.618991 # 2 
2 1 1 0.423800 0.031000 7.947556 0.339497 # 1 
3 1 1 0.423800 0.031000 7.072964 1.575566 # 1 
4 2 2 -0.847600 4.523250 7.031740 0.618991 # 2 
5 2 1 0.423800 4.523250 7.947556 0.339497 # 1 
6 2 1 0.423800 4.523250 7.072964 1.575566 # 1 
7 3 2 -0.847600 2.277125 3.141325 0.618991 # 2 
8 3 1 0.423800 2.277125 4.057139 0.339497 # 1 
9 3 1 0.423800 2.277125 3.182593 1.575566 # 1 
10 4 2 -0.847600 6.769375 3.141325 0.618991 # 2 
11 4 1 0.423800 6.769375 4.057139 0.339497 # 1 
12 4 1 0.423800 6.769375 3.182593 1.575566 # 1 
13 5 2 -0.847600 0.031000 1.845075 4.286903 # 2 
14 5 1 0.423800 0.031000 0.929260 4.007408 # 1 
15 5 1 0.423800 0.031000 1.803805 5.243475 # 1 
16 6 2 -0.847600 4.523250 1.845075 4.286903 # 2 
17 6 1 0.423800 4.523250 0.929260 4.007408 # 1 
18 6 1 0.423800 4.523250 1.803805 5.243475 # 1 
19 7 2 -0.847600 2.277125 5.735442 4.286903 # 2 
20 7 1 0.423800 2.277125 4.819674 4.007408 # 1 
21 7 1 0.423800 2.277125 5.694220 5.243475 # 1 
22 8 2 -0.847600 6.769375 5.735442 4.286903 # 2 
23 8 1 0.423800 6.769375 4.819674 4.007408 # 1 
24 8 1 0.423800 6.769375 5.694220 5.243475 # 1 
25 9 2 -0.847600 2.277125 5.735442 7.037830 # 2 
26 9 1 0.423800 3.034069 6.213962 7.375998 # 1 
27 9 1 0.423800 1.520181 6.213962 7.375998 # 1 
28 10 2 -0.847600 6.769375 5.735442 7.037830 # 2 
29 10 1 0.423800 7.526319 6.213962 7.375998 # 1 
30 10 1 0.423800 6.012431 6.213962 7.375998 # 1 
31 11 2 -0.847600 9.015500 1.845075 7.037830 # 2 
32 11 1 0.423800 9.772444 2.323595 7.375998 # 1 
33 11 1 0.423800 8.258555 2.323595 7.375998 # 1 
34 12 2 -0.847600 4.523250 1.845075 7.037830 # 2 
35 12 1 0.423800 5.280194 2.323595 7.375998 # 1 
36 12 1 0.423800 3.766306 2.323595 7.375998 # 1 
37 13 2 -0.847600 2.277125 3.141325 3.369920 # 2 
38 13 1 0.423800 1.520181 2.662805 3.708087 # 1 
39 13 1 0.423800 3.034069 2.662805 3.708087 # 1 
40 14 2 -0.847600 6.769375 3.141325 3.369920 # 2 
41 14 1 0.423800 6.012431 2.662805 3.708087 # 1 
42 14 1 0.423800 7.526319 2.662805 3.708087 # 1 
43 15 2 -0.847600 9.015500 7.031740 3.369920 # 2 
44 15 1 0.423800 8.258555 6.553220 3.708087 # 1 
45 15 1 0.423800 9.772444 6.553220 3.708087 # 1 
46 16 2 -0.847600 4.523250 7.031740 3.369920 # 2 
47 16 1 0.423800 3.766306 6.553220 3.708087 # 1 
48 16 1 0.423800 5.280194 6.553220 3.708087 # 1 

 Bonds

1 1 1 2
2 1 1 3
3 1 4 5
4 1 4 6
5 1 7 8
6 1 7 9
7 1 10 11
8 1 10 12
9 1 13 14
10 1 13 15
11 1 16 17
12 1 16 18
13 1 19 20
14 1 19 21
15 1 22 23
16 1 22 24
17 1 25 26
18 1 25 27
19 1 28 30
20 1 28 29
21 1 31 33
22 1 31 32
23 1 34 35
24 1 34 36
25 1 37 39
26 1 37 38
27 1 40 41
28 1 40 42
29 1 43 44
30 1 43 45
31 1 46 47
32 1 46 48

 Angles

1 1 2 1 3
2 1 5 4 6
3 1 8 7 9
4 1 11 10 12
5 1 14 13 15
6 1 17 16 18
7 1 20 19 21
8 1 23 22 24
9 1 26 25 27
10 1 29 28 30
11 1 32 31 33
12 1 35 34 36
13 1 38 37 39
14 1 41 40 42
15 1 44 43 45
16 1 47 46 48

