LAMMPS (19 Sep 2019)
echo both

include		in.temp
variable	temperature equal 300.0
variable	temperature2 equal 450.0

variable	tempDamp equal 100.0
include		in.pressure
variable        pressure equal 1.
variable        pressureDamp equal 1000.0 # This is 1 ps
include		in.seed
variable	seed equal 745821
units		real
atom_style	full
include		in.box
read_data       ice.data
  orthogonal box = (0.249472 0.548007 0.169594) to (9.23397 8.32881 7.50539)
  2 by 2 by 1 MPI processor grid
  reading atoms ...
  48 atoms
  scanning bonds ...
  2 = max bonds/atom
  scanning angles ...
  1 = max angles/atom
  reading bonds ...
  32 bonds
  reading angles ...
  16 angles
  2 = max # of 1-2 neighbors
  1 = max # of 1-3 neighbors
  1 = max # of 1-4 neighbors
  2 = max # of special neighbors
  special bonds CPU = 6.46231e-05 secs
  read_data CPU = 0.00044451 secs
include 	in.setup
variable	out_freq equal 500
variable	out_freq2 equal 500

timestep	2.0

neigh_modify    delay 10 every 1

include		in.tip4p
# This is TIP4P/Ice

# create groups ###
group ox type 2
16 atoms in group ox
group hy type 1
32 atoms in group hy

# set charges - beside manually ###
set group ox charge -1.1794
  16 settings made for charge
set group hy charge 0.5897
  32 settings made for charge

# ### TIP3P Potential Parameters ###
pair_style lj/cut/tip4p/long 2 1 1 1 0.1577 8.5
pair_coeff 1 1*2 0.000 0.000
pair_coeff 2 2 0.21084 3.1668
bond_style  harmonic
bond_coeff  1 450 0.9572
angle_style harmonic
angle_coeff 1 55 104.52
kspace_style pppm/tip4p 1.0e-4 #final npt relaxation
pair_modify tail yes

thermo          ${out_freq}
thermo          500
thermo_style 	custom step temp pe etotal epair evdwl ecoul ebond eangle elong etail press lx ly lz vol

restart 	${out_freq} restart.lmp restart2.lmp
restart 	500 restart.lmp restart2.lmp


fix 		1 all shake 1e-6 200 0 b 1 a 1
  0 = # of size 2 clusters
  0 = # of size 3 clusters
  0 = # of size 4 clusters
  16 = # of frozen angles
  find clusters CPU = 6.73379e-05 secs
fix             2 all nph iso ${pressure} ${pressure} ${pressureDamp}
fix             2 all nph iso 1 ${pressure} ${pressureDamp}
fix             2 all nph iso 1 1 ${pressureDamp}
fix             2 all nph iso 1 1 1000
fix             3 all temp/csvr ${temperature2} ${temperature2} ${tempDamp} ${seed}
fix             3 all temp/csvr 450 ${temperature2} ${tempDamp} ${seed}
fix             3 all temp/csvr 450 450 ${tempDamp} ${seed}
fix             3 all temp/csvr 450 450 100 ${seed}
fix             3 all temp/csvr 450 450 100 745821

run             200000
PPPM initialization ...
  extracting TIP4P info from pair style
  using 12-bit tables for long-range coulomb (../kspace.cpp:323)
  G vector (1/distance) = 0.343339
  grid = 8 8 6
  stencil order = 5
  estimated absolute RMS force accuracy = 0.0137127
  estimated relative force accuracy = 4.12952e-05
  using double precision KISS FFT
  3d grid and FFT values/proc = 1573 128
Neighbor list info ...
  update every 1 steps, delay 10 steps, check yes
  max neighbors/atom: 2000, page size: 100000
  master list distance cutoff = 10.8154
  ghost atom cutoff = 10.8154
  binsize = 5.4077, bins = 2 2 2
  1 neighbor lists, perpetual/occasional/extra = 1 0 0
  (1) pair lj/cut/tip4p/long, perpetual
      attributes: half, newton on
      pair build: half/bin/newton
      stencil: half/bin/3d/newton
      bin: standard
Per MPI rank memory allocation (min/avg/max) = 7.894 | 7.896 | 7.897 Mbytes
Step Temp PotEng TotEng E_pair E_vdwl E_coul E_bond E_angle E_long E_tail Press Lx Ly Lz Volume 
       0            0   -262.98376   -262.98376   -262.98376    67.247631    1816.9251            0            0   -2147.1565   -1.4468571    -354.4856       8.9845       7.7808       7.3358    512.82082 
     500    437.24967   -197.17259   -156.76848   -197.17259    21.558391    1927.8734            0            0   -2146.6043   -1.3286611     -6523.18    9.2433854    8.0050012    7.5471786    558.44074 
    1000    516.60695   -174.60352   -126.86639   -174.60352    25.930337    1944.9638            0            0   -2145.4976   -1.4333118    877.70605    9.0127136    7.8052337    7.3588363    517.66717 
    1500    483.70242   -193.41624   -148.71966   -193.41624    35.655119    1917.1405            0            0   -2146.2118   -1.4521759    1581.6166    8.9735176     7.771289     7.326833    510.94255 
    2000    420.08158    -192.1592   -153.34151    -192.1592    42.441777    1911.9287            0            0   -2146.5297   -1.5610802    6198.0823    8.7597974     7.586202    7.1523315    475.29812 
    2500    445.20508   -169.84149   -128.70227   -169.84149    38.728221    1937.1132            0            0    -2145.683   -1.4317224    7129.4691    9.0160476     7.808121    7.3615584    518.24186 
    3000    419.60288   -166.93105   -128.15759   -166.93105    11.978883    1966.4137            0            0   -2145.3236    -1.160792   -5415.5846    9.6690616    8.3736474    7.8947412    639.20019 
    3500    453.81913   -174.14732   -132.21211   -174.14732    20.736419    1951.0983            0            0    -2145.982   -1.4073735   -1525.1325     9.067746    7.8528931    7.4037699    527.20794 
    4000    403.38191   -171.80016   -134.52561   -171.80016    31.013271    1941.7417            0            0   -2144.5551    -1.432688     3022.432    9.0140216    7.8063664    7.3599042    517.89258 
    4500    515.82725   -173.05724   -125.39217   -173.05724    22.760897    1949.4104            0            0   -2145.2285   -1.4309672   -327.19043    9.0176333    7.8094942    7.3628531    518.51535 
    5000    464.99859   -172.79044   -129.82219   -172.79044    16.735293    1956.4767            0            0   -2146.0024   -1.4297165   -1973.1993    9.0202622    7.8117709    7.3649996    518.96896 
    5500    530.27232    -180.2564   -131.25653    -180.2564    23.506291    1941.5318            0            0   -2145.2945   -1.2632259   -3276.1016    9.4003088    8.1409007    7.6753058    587.36798 
    6000    399.10202   -179.22207     -142.343   -179.22207    33.319027    1932.0238            0            0   -2144.5649   -1.4741553    4049.0047    8.9286962    7.7324726    7.2902365    503.32448 
    6500    432.66496    -163.1999   -123.21944    -163.1999    14.953608    1967.9129            0            0   -2146.0664   -1.5108507   -220.81776    8.8558165    7.6693569    7.2307306    491.09978 
    7000    422.62752   -173.99364    -134.9407   -173.99364    18.221239      1953.79            0            0   -2146.0049   -1.3716731   -2808.4737    9.1457415    7.9204392    7.4674529    540.92951 
    7500    528.96325    -175.2741   -126.39519    -175.2741    25.004221     1943.633            0            0   -2143.9113   -1.3816209   -1365.5638    9.1237385     7.901384    7.4494876    537.03477 
    8000    385.63034   -175.08019   -139.44598   -175.08019    30.166133    1939.8605            0            0   -2145.1068   -1.5661846     4331.114    8.7502705    7.5779514    7.1445528    473.74904 
    8500    499.65013   -164.49934   -118.32911   -164.49934    24.253904    1955.6556            0            0   -2144.4089   -1.3573711    697.67882    9.1777508      7.94816    7.4935883    546.62903 
    9000    514.96938   -175.62434   -128.03854   -175.62434    9.5016501    1960.7439            0            0   -2145.8699   -1.5023788   -5719.2841    8.8724314    7.6837458    7.2442965    493.86911 
    9500    401.32112   -158.45708   -121.37296   -158.45708    26.361983    1959.6158            0            0   -2144.4349   -1.3004318    1473.2014    9.3097912    8.0625103    7.6013987    570.56317 
   10000    366.30376   -172.07779   -138.22945   -172.07779    19.324137    1954.5161            0            0    -2145.918   -1.6072495    1136.7647    8.6751041    7.5128555    7.0831798    461.64485 
   10500    403.07129   -175.14738   -137.90153   -175.14738    25.691689    1945.4025            0            0   -2146.2416   -1.3119482   -1279.1285    9.2824703    8.0388497    7.5790913    565.55469 
   11000    463.40526   -176.64028   -133.81926   -176.64028    31.402276    1937.5181            0            0   -2145.5606   -1.4516424    3731.1464    8.9746168    7.7722409    7.3277304    511.13032 
   11500     564.5718   -170.31026   -118.14094   -170.31026    19.933012    1954.2893            0            0   -2144.5326   -1.3818342   -1802.3358    9.1232691    7.9009775    7.4491043    536.95188 
   12000    437.60102   -180.19492   -139.75835   -180.19492    24.755074     1940.956            0            0    -2145.906   -1.5207968   -406.06062    8.8364686    7.6526011    7.2149331    487.88798 
   12500    581.80146   -174.56186   -120.80043   -174.56186    25.875654    1945.5341            0            0   -2145.9716   -1.5938926    3989.7617    8.6992693    7.5337832    7.1029106    465.51346 
   13000    329.22899   -160.59792   -130.17548   -160.59792    17.945087    1966.5055            0            0   -2145.0485   -1.2849153   -2238.1886    9.3471159    8.0948344    7.6318741    577.45321 
   13500    425.90933   -181.95205   -142.59585   -181.95205    15.233163    1948.1203            0            0   -2145.3055   -1.4446597   -4930.4903    8.9890531    7.7847431    7.3395176    513.60086 
   14000    401.77136   -169.31647   -132.19074   -169.31647    8.8344397    1967.0366            0            0   -2145.1875    -1.366159   -7033.8893    9.1580296     7.931081    7.4774861     543.1128 
   14500    416.18124   -164.58736   -126.13008   -164.58736    25.220016    1955.6828            0            0   -2145.4902   -1.3919772    1936.5638    9.1010553    7.8817398    7.4309669    533.03923 
   15000    457.32692   -164.39995   -122.14061   -164.39995    13.768314    1967.1137            0            0    -2145.282   -1.5029789    -1930.148    8.8712504     7.682723    7.2433322    493.67191 
   15500    421.11992   -182.26755   -143.35391   -182.26755    29.379319    1934.7966            0            0   -2146.4435   -1.6207349    4282.1864    8.6509766    7.4919605    7.0634798    457.80372 
   16000    494.02481   -173.79269   -128.14227   -173.79269    17.073891    1955.1533            0            0   -2146.0199   -1.2817604   -4788.6725    9.3547786    8.1014704    7.6381306    578.87453 
   16500    464.83342    -177.3805   -134.42751    -177.3805    34.084985    1934.6507            0            0   -2146.1162   -1.3877275    2244.6094    9.1103361    7.8897772    7.4385445    534.67158 
   17000    494.90428    -176.5589   -130.82721    -176.5589    17.046839    1952.8616            0            0   -2146.4673    -1.416239   -4498.1714    9.0487853    7.8364726    7.3882886    523.90767 
   17500    431.93549   -198.38444   -158.47139   -198.38444    28.654422    1919.1743            0            0   -2146.2132   -1.5398917   -1415.9511    8.7997919    7.6208382    7.1849868    481.83808 
   18000    442.55177   -183.00523   -142.11119   -183.00523    25.404115    1937.9485            0            0   -2146.3579   -1.5840197    2418.2796    8.7173057    7.5494031    7.1176372    468.41494 
   18500    383.59458   -172.13018   -136.68408   -172.13018    20.208165    1953.5766            0            0    -2145.915   -1.3488874   -1781.9259    9.1969515    7.9647882    7.5092656      550.067 
   19000     397.6499   -168.34383   -131.59895   -168.34383    23.161351     1953.965            0            0   -2145.4702   -1.4406749    1151.6008    8.9973332    7.7919138    7.3462782    515.02145 
   19500    520.99544     -171.621   -123.47836     -171.621    24.084057    1947.9751            0            0   -2143.6802   -1.3861779    725.52156    9.1137296    7.8927161    7.4413154    535.26929 
   20000    415.35071   -178.56343    -140.1829   -178.56343    55.635513    1911.1504            0            0   -2145.3493   -1.3313625    10775.725    9.2371292    7.9995832    7.5420705     557.3076 
   20500    467.66711   -159.68172   -116.46689   -159.68172    7.8386786    1977.5627            0            0   -2145.0831   -1.3365765   -5801.8953    9.2251024    7.9891676    7.5322506    555.13357 
   21000    383.04728   -166.47516   -131.07964   -166.47516     15.94132    1963.9729            0            0   -2146.3894   -1.3634965   -2901.5174    9.1639869    7.9362401    7.4823501    544.17337 
   21500    410.08698   -174.59393    -136.6998   -174.59393     14.11275     1956.816            0            0   -2145.5227   -1.1853646   -6078.7516    9.6017814     8.315381    7.8398072    625.94958 
   22000     533.5958   -184.38603   -135.07905   -184.38603    22.064617    1939.9327            0            0   -2146.3833   -1.4852918   -1122.7617    8.9063249    7.7130984    7.2719704    499.55063 
   22500    517.43837   -178.81301   -130.99906   -178.81301    30.814094    1934.3282            0            0   -2143.9553   -1.5274008    2643.5731    8.8237148    7.6415561    7.2045197    485.77851 
   23000    477.78082   -182.70332   -138.55393   -182.70332    32.373263    1930.2329            0            0   -2145.3095   -1.3511243     873.7449    9.1918732    7.9603904    7.5051192    549.15632 
   23500    446.21105   -178.30543   -137.07325   -178.30543    13.440405    1953.8474            0            0   -2145.5932   -1.4975992   -4388.7016    8.8818601    7.6919113     7.251995    495.44528 
   24000      418.359   -175.23789   -136.57938   -175.23789    17.454538    1952.7392            0            0   -2145.4316   -1.4252497   -3391.4462    9.0296755    7.8199231    7.3726855    520.59541 
   24500    361.26502   -169.50847   -136.12573   -169.50847    18.977677    1957.0157            0            0   -2145.5018   -1.3747008   -2029.1373    9.1390222    7.9146201    7.4619666    539.73814 
   25000    505.17865   -171.18177   -124.50068   -171.18177    34.830207    1938.4955            0            0   -2144.5075   -1.5486886    7843.3389    8.7830988    7.6063816    7.1713569    479.10115 
   25500    443.71642   -187.94441   -146.94274   -187.94441    26.251025    1930.9184            0            0   -2145.1138   -1.4483174   -2631.5185    8.9814794    7.7781841    7.3333337    512.30377 
   26000    579.60429   -147.36046   -93.802065   -147.36046    8.3815839    1988.4705            0            0   -2144.2125    -1.225822   -3439.6285    9.4949641    8.2228746    7.7525915    605.29055 
   26500    487.91694   -177.77989   -132.69387   -177.77989    24.886578    1943.1406            0            0    -2145.807    -1.564629     2054.217    8.7531695     7.580462    7.1469198    474.22006 
   27000    478.41717   -161.30531   -117.09712   -161.30531    19.131911    1964.4612            0            0   -2144.8984   -1.4854215    1879.9123    8.9060657     7.712874    7.2717588    499.50702 
   27500    431.27725   -169.45284   -129.60062   -169.45284    30.498509    1945.4115            0            0   -2145.3629    -1.401197    2946.6931    9.0810498    7.8644146    7.4146325    529.53185 
   28000    466.81565   -161.09364   -117.95749   -161.09364    20.370231    1964.2542            0            0    -2145.718   -1.4540099    2227.5633    8.9697433    7.7680203    7.3237512     510.2981 
   28500    461.68014   -178.36142   -135.69982   -178.36142    26.825394    1940.9978            0            0   -2146.1846   -1.4150462    72.353579    9.0513271     7.838674     7.390364     524.3493 
   29000    496.09202   -164.85871   -119.01728   -164.85871    20.715383    1959.0832            0            0   -2144.6573   -1.4802438    76.105996    8.9164377    7.7218564    7.2802275    501.25423 
   29500    529.22235   -173.88283   -124.97998   -173.88283    21.666476    1949.7197            0            0    -2145.269   -1.4624991   -310.55961    8.9523543     7.752961    7.3095532    507.33602 
   30000    469.10518   -172.45047   -129.10275   -172.45047    33.050629    1939.4542            0            0   -2144.9552   -1.2512449    2436.9477    9.4302171    8.1668021    7.6997258     592.9922 
   30500    526.48049   -168.65785   -120.00836   -168.65785    15.005565    1962.1144            0            0   -2145.7778   -1.3317923   -2714.7672    9.2361356    7.9987227    7.5412592    557.12777 
   31000    397.53201   -175.23821   -138.50422   -175.23821    21.577949    1949.2112            0            0   -2146.0274   -1.4208637   -2980.0377    9.0389571    7.8279612     7.380264    522.20243 
   31500    380.77785   -180.85453   -145.66871   -180.85453    17.351885     1946.941            0            0   -2145.1474    -1.500212   -3156.8586    8.8767009    7.6874433    7.2477825    494.58241 
   32000    426.95007   -157.73859   -118.28622   -157.73859   -1.1542895    1987.9531            0            0   -2144.5374   -1.3061339   -9566.6602    9.2962236    8.0507604    7.5903208    568.07227 
   32500    417.96374   -154.96908   -116.34709   -154.96908    22.776401    1966.7223            0            0   -2144.4678   -1.5983054    4437.0999    8.6912559    7.5268434    7.0963677    464.22821 
   33000    375.22675   -182.19919   -147.52632   -182.19919    20.546532    1943.4404            0            0   -2146.1861   -1.3932906    -3474.841    9.0981948    7.8792625    7.4286312    532.53676 
   33500    456.08775   -156.78203   -114.63719   -156.78203    17.494205    1970.7406            0            0   -2145.0168   -1.3473423   -762.02002    9.2004659    7.9678318    7.5121351    550.69783 
   34000    500.45615   -172.45268   -126.20798   -172.45268     11.99711    1961.4656            0            0   -2145.9154    -1.545709   -3107.7173    8.7887387    7.6112658    7.1759618    480.02468 
   34500    353.91928   -180.87745    -148.1735   -180.87745    22.640303    1942.3105            0            0   -2145.8283   -1.5660359    8.0822254    8.7505475    7.5781913    7.1447789    473.79403 
   35000    466.49432   -169.32641   -126.21995   -169.32641    27.551219    1949.4626            0            0   -2146.3403   -1.5089008    3346.3019    8.8596297    7.6726592     7.233844    491.73442 
   35500    415.92532   -171.85632    -133.4227   -171.85632    18.672141    1955.1122            0            0   -2145.6407   -1.5320209   -1674.8484     8.814836    7.6338668    7.1972702    484.31355 
   36000    503.74631   -169.60307   -123.05433   -169.60307    17.013137    1959.4966            0            0   -2146.1128    -1.495763   -1756.1831    8.8854932    7.6950577    7.2549614    496.05351 
   36500    496.58332   -174.63423    -128.7474   -174.63423    36.233902    1935.5825            0            0   -2146.4506   -1.3995728    3201.0631    9.0845614    7.8674556    7.4174996    530.14638 
   37000    441.96932   -166.04237   -125.20214   -166.04237    28.346506     1951.746            0            0   -2146.1348    -1.570174    5386.5069    8.7428535    7.5715281    7.1384968    472.54537 
   37500    463.67415   -173.40407   -130.55821   -173.40407    24.288381    1948.1813            0            0   -2145.8737   -1.5453494     1910.736    8.7894204    7.6118562    7.1765185    480.13639 
   38000    433.01898   -163.16017     -123.147   -163.16017    35.151529    1947.5856            0            0   -2145.8973   -1.4116429    6397.3307     9.058595    7.8449681    7.3962982    525.61342 
   38500    569.22533   -172.00892   -119.40959   -172.00892    31.290748    1942.5899            0            0   -2145.8896   -1.5429819    6059.6907    8.7939134    7.6157473     7.180187    480.87308 
   39000    385.37131    -141.1385   -105.52822    -141.1385    23.037426    1979.4319            0            0   -2143.6078   -1.4151228    4789.2931    9.0511637    7.8385324    7.3902306    524.32089 
   39500    377.58289   -155.59403   -120.70344   -155.59403    36.790856    1952.4891            0            0    -2144.874   -1.3640186    6040.9785    9.1628175    7.9352274    7.4813954    543.96508 
   40000    455.53249     -171.354   -129.26047     -171.354    36.962068    1937.9891            0            0   -2146.3051   -1.6934387    12248.688    8.5253582    7.3831718     6.960913    438.14899 
   40500    461.54192   -163.59218   -120.94334   -163.59218    18.480625     1963.386            0            0   -2145.4588   -1.3844477   -104.30429    9.1175246    7.8960026    7.4444139    535.93823 
   41000    373.34793    -171.4879   -136.98864    -171.4879    15.563159    1958.0593            0            0   -2145.1104   -1.3893685    -4036.572    9.1067479    7.8866697    7.4356148    534.04009 
   41500    413.72767   -174.36213   -136.13158   -174.36213    30.544328    1939.2914            0            0   -2144.1979   -1.4021602    2306.7521    9.0789701    7.8626135    7.4129344    529.16812 
   42000    403.36311   -181.97702    -144.7042   -181.97702    24.488376    1939.4181            0            0   -2145.8835   -1.4586995   -1719.8872    8.9601205    7.7596867    7.3158943    508.65751 
   42500     399.5931   -184.19024   -147.26579   -184.19024     30.28194    1931.8086            0            0   -2146.2807   -1.4500756    830.17654    8.9778481    7.7750393    7.3303688    511.68262 
   43000    360.90038    -162.1475   -128.79846    -162.1475    9.0553111    1973.1502            0            0   -2144.3531   -1.3333753   -5558.7359     9.232479    7.9955559    7.5382736    556.46633 
   43500    508.10805   -155.77584   -108.82406   -155.77584    24.402199    1964.7789            0            0   -2144.9569   -1.3514963     2039.184    9.1910298    7.9596599    7.5044306    549.00517 
   44000    462.73311   -171.67996   -128.92106   -171.67996    25.879947    1947.6613            0            0   -2145.2213   -1.5040282    3005.9325    8.8691869     7.680936    7.2416474     493.3275 
   44500    387.45072   -173.78563   -137.98321   -173.78563    26.527225    1944.9704            0            0   -2145.2833   -1.5255107    1926.7575    8.8273574    7.6447106    7.2074938    486.38037 
   45000    581.54203    -176.6823   -122.94485    -176.6823    19.249686    1949.7544            0            0   -2145.6864   -1.5017925   -695.17154    8.8735858    7.6847455    7.2452391     494.0619 
   45500    473.30295   -192.18209   -148.44648   -192.18209    23.610039    1930.4836            0            0   -2146.2757   -1.4839188   -2502.0806     8.909071    7.7154766    7.2742126    500.01286 
   46000     450.4672    -170.0554   -128.42992    -170.0554    15.384007    1960.3097            0            0   -2145.7491   -1.4616932   -1693.0515    8.9539992    7.7543856    7.3108963    507.61572 
   46500    456.57774   -171.31964   -129.12952   -171.31964    23.795844    1950.7578            0            0   -2145.8733   -1.3987877   -286.90578    9.0862608    7.8689274    7.4188872    530.44395 
   47000    479.49125   -182.35535   -138.04791   -182.35535    22.599215    1940.8965            0            0    -2145.851    -1.462107   -901.64478    8.9531545    7.7536541    7.3102066    507.47208 
   47500     442.2104   -181.99779   -141.13529   -181.99779    26.845193    1937.1322            0            0   -2145.9752   -1.4469004   -564.78431    8.9844105    7.7807225    7.3357269    512.80549 
   48000    453.21207   -168.04836   -126.16925   -168.04836    32.771421    1944.3679            0            0   -2145.1877    -1.347138    4201.9748     9.200931    7.9682346    7.5125148    550.78135 
   48500    545.01836   -169.00559   -118.64311   -169.00559    16.380718    1959.5283            0            0   -2144.9146   -1.4224004    -2132.361    9.0357007    7.8251411    7.3776051    521.63824 
   49000    518.81748   -163.27135   -115.32997   -163.27135    24.573532    1957.9928            0            0   -2145.8377    -1.321405    644.25479    9.2602735    8.0196267    7.5609677    561.50722 
   49500    505.22603   -173.71142   -127.02596   -173.71142    24.260154    1947.5397            0            0   -2145.5113   -1.5672719    2768.0926    8.7482466    7.5761987    7.1429003    473.42039 
   50000     448.3431   -167.21399   -125.78479   -167.21399     16.07146    1962.0023            0            0   -2145.2877   -1.4952136   -1410.6313    8.8865814        7.696    7.2558499    496.23578 
   50500    411.81061   -168.40951    -130.3561   -168.40951    21.141917    1955.2314            0            0   -2144.7829   -1.3939775   -1537.3193    9.0967001    7.8779681    7.4274108    532.27435 
   51000    388.89826    -179.1202   -143.18402    -179.1202    19.275294    1947.0678            0            0   -2145.4633   -1.3851863   -3571.6317    9.1159038     7.894599    7.4430906    535.65247 
   51500    361.03802   -184.55453   -151.19277   -184.55453    19.785996    1940.6275            0            0    -2144.968    -1.453463   -3697.7069    8.9708682    7.7689945    7.3246697    510.49011 
   52000    536.13346   -180.61391   -131.07244   -180.61391    38.701359    1926.4909            0            0   -2145.8062   -1.5051175    7916.7148    8.8670468    7.6790826       7.2399    492.97047 
   52500    459.37243   -172.27238   -129.82402   -172.27238    15.475527    1958.2354            0            0   -2145.9833   -1.5049643   -2571.2133    8.8673476    7.6793431    7.2401457    493.02065 
   53000    383.48701   -180.96004   -145.52388   -180.96004     31.90096    1932.6931            0            0   -2145.5541   -1.4232817    1115.1905    9.0338355    7.8235258    7.3760822    521.31527 
   53500     501.0687   -163.33397   -117.03266   -163.33397    25.738573    1956.3732            0            0   -2145.4457   -1.5499257    4549.0484    8.7807612    7.6043571    7.1694483    478.71872 
   54000    416.94524   -171.03529   -132.50742   -171.03529    19.486039    1955.7209            0            0   -2146.2422   -1.4614929    -1679.058    8.9544084    7.7547399    7.3112304    507.68532 
   54500    437.09671   -192.50939   -152.11942   -192.50939    12.956873     1940.617            0            0   -2146.0832   -1.5555824    -6664.205    8.7701049    7.5951285    7.1607475    476.97792 
   55000    435.77222   -157.37195   -117.10437   -157.37195    27.151942    1960.4638            0            0   -2144.9877   -1.3834028    3049.2971    9.1198195      7.89799    7.4462877    536.34302 
   55500    408.75662   -175.12332   -137.35212   -175.12332    18.851647    1951.2107            0            0   -2145.1857   -1.4282623   -3533.4728    9.0233223    7.8144211    7.3674983    519.49734 
   56000    407.75874    -189.3439   -151.66491    -189.3439    28.348898    1927.5286            0            0   -2145.2213   -1.6352582    1793.0019    8.6252896    7.4697148    7.0425064     453.7378 
   56500    348.55927   -180.69249   -148.48383   -180.69249    30.085436      1935.17            0            0   -2145.9479   -1.6153315    3802.4647    8.6606119    7.5003049     7.071347    459.33511 
   57000    447.32967   -186.80951   -145.47396   -186.80951     39.57704    1919.9962            0            0   -2146.3827   -1.4133233    3651.1659    9.0550036    7.8418579    7.3933659    524.98851 
   57500    498.71944   -172.98839   -126.90417   -172.98839    28.438709    1944.5788            0            0   -2146.0059    -1.451187     2762.337    8.9755555    7.7730539    7.3284969    511.29074 
   58000    514.03957   -169.75654   -122.25666   -169.75654    47.048483    1929.0369            0            0   -2145.8419   -1.4792187    12843.626    8.9184969    7.7236397    7.2819088    501.60159 
   58500    474.63763   -179.96543   -136.10649   -179.96543    26.059973     1940.171            0            0   -2146.1964   -1.5584596    1945.0445    8.7647046    7.5904517    7.1563381    476.09734 
   59000    426.74748    -175.9286   -136.49495    -175.9286    22.166251     1948.166            0            0   -2146.2609   -1.3872877   -1353.3222    9.1112988    7.8906109    7.4393306     534.8411 
   59500    376.30875   -165.92607   -131.15322   -165.92607    6.8365749    1972.8521            0            0   -2145.6148   -1.4590747   -5653.9828    8.9593524    7.7590215    7.3152671     508.5267 
   60000    505.96293   -148.06155   -101.30799   -148.06155    23.351988    1974.3818            0            0   -2145.7953    -1.387531    4578.1053    9.1107662    7.8901497    7.4388957    534.74731 
   60500    370.54053   -184.11812   -149.87828   -184.11812    26.050917    1935.9235            0            0   -2146.0925   -1.4875498   -1170.6949    8.9018163    7.7091939    7.2682892    498.79237 
   61000    421.65512    -160.3034   -121.34031    -160.3034    17.563335    1966.8817            0            0   -2144.7484   -1.4062376   -119.59041    9.0701868    7.8550069    7.4057629     527.6338 
   61500    419.46108   -150.20981   -111.44946   -150.20981    29.954247    1965.3391            0            0   -2145.5032   -1.3719785    5961.1715    9.1450629    7.9198515    7.4668988    540.80912 
   62000    394.49868   -169.97511   -133.52141   -169.97511    22.312076    1953.7987            0            0   -2146.0859   -1.5036446    77.644136     8.869941     7.681589    7.2422631    493.45334 
   62500    505.77116   -172.23713   -125.50129   -172.23713    16.821133    1956.7663            0            0   -2145.8246   -1.5108519   -2043.8497    8.8558142    7.6693549    7.2307287    491.09939 
   63000    417.10806   -169.14173   -130.59882   -169.14173    23.443805    1953.6111            0            0   -2146.1967   -1.4772635    1616.9376    8.9224298    7.7270457      7.28512    502.26548 
   63500    515.73175   -172.89763   -125.24138   -172.89763    22.487532    1950.6457            0            0   -2146.0309   -1.4619827    173.75272    8.9534083    7.7538738    7.3104138    507.51523 
   64000    412.29599   -160.33477   -122.23651   -160.33477    5.7412254    1979.3577            0            0   -2145.4337   -1.4678101   -4980.9176    8.9415438    7.7435989    7.3007265    505.50032 
   64500    475.71183    -161.1187    -117.1605    -161.1187    10.619624    1974.0619            0            0   -2145.8002    -1.313118   -5022.9366    9.2797131    8.0364619      7.57684    565.05088 
   65000    456.35134   -174.57516   -132.40596   -174.57516    27.458966    1943.8135            0            0   -2145.8476   -1.4494362    274.32263    8.9791679    7.7761823    7.3314464    511.90832 
   65500    678.45829   -179.20656   -116.51355   -179.20656    20.717435    1945.8046            0            0   -2145.7286   -1.5144112   -408.79279    8.8488709    7.6633419    7.2250595    489.94518 
   66000    379.18691   -186.20236   -151.16355   -186.20236    14.117175    1945.1728            0            0   -2145.4923   -1.4550487   -5978.6453    8.9676081    7.7661712    7.3220079    509.93377 
   66500    517.23811   -192.38262   -144.58718   -192.38262     26.86039    1926.7398            0            0   -2145.9829   -1.3682907   -1619.9457    9.1532713    7.9269602     7.473601    542.26668 
   67000     432.1059   -171.41181   -131.48302   -171.41181    19.523907    1954.7024            0            0   -2145.6382    -1.515277   -1055.3519    8.8471852     7.661882    7.2236831    489.66523 
   67500    521.44737   -172.85005   -124.66565   -172.85005    29.206637    1944.5296            0            0   -2146.5863   -1.5580127    4414.1058    8.7655424    7.5911773    7.1570222    476.23389 
   68000    505.62193   -155.77652   -109.05447   -155.77652     15.70813    1973.0799            0            0   -2144.5646   -1.4724438    1004.5666    8.9321543    7.7354674      7.29306    503.90952 
   68500    482.43933   -170.75628   -126.17642   -170.75628    11.972547    1963.3605            0            0   -2146.0893   -1.5607408    -3711.023    8.7604323    7.5867518    7.1528498    475.40147 
   69000     372.2983   -177.90703   -143.50477   -177.90703    23.527512    1944.1529            0            0   -2145.5874   -1.5169544   -319.00771    8.8439231    7.6590569    7.2210197    489.12379 
   69500      463.881    -176.6738   -133.80882    -176.6738    14.645873    1954.2812            0            0   -2145.6009   -1.6143166     -2555.18    8.6624265    7.5018763    7.0728285    459.62389 
   70000    431.78295    -177.0987   -137.19975    -177.0987    25.947939    1942.5547            0            0   -2145.6013   -1.4803006    1063.0516    8.9163238    7.7217577    7.2801344    501.23501 
   70500    397.25914   -157.92615   -121.21737   -157.92615    10.898672    1977.2515            0            0   -2146.0763   -1.2497237   -3961.3283    9.4340418    8.1701144    7.7028487    593.71401 
   71000    494.62165   -169.11833   -123.41277   -169.11833    15.849399    1960.2405            0            0   -2145.2083   -1.3209457   -4086.2841    9.2613466    8.0205561    7.5618439    561.70246 
   71500    463.38584   -150.71876   -107.89954   -150.71876    11.962373    1980.2918            0            0   -2142.9729   -1.3302114   -2639.5011     9.239793    8.0018901    7.5442455    557.78989 
   72000    511.52502   -178.91512    -131.6476   -178.91512    31.523491    1935.1169            0            0   -2145.5555   -1.4377552    2061.9414    9.0034195    7.7971847    7.3512476    516.06732 
   72500    473.24769    -180.9934   -137.26289    -180.9934    26.723865    1938.2725            0            0   -2145.9898   -1.3678604   -1783.9779     9.154231    7.9277913    7.4743846    542.43726 
   73000    325.09206   -171.06128   -141.02111   -171.06128    16.138049    1956.4579            0            0   -2143.6573   -1.3965294   -3435.7826    9.0911558    7.8731665    7.4228839     531.3017 
   73500    549.18253   -185.72747    -134.9802   -185.72747    23.503202    1936.2189            0            0   -2145.4495   -1.4346483   -2888.9488     9.009914    7.8028092    7.3565504    517.18492 
   74000    438.37445   -167.36199   -126.85395   -167.36199    20.711461    1958.1999            0            0   -2146.2733   -1.4443754    481.10428    8.9896427    7.7852537     7.339999    513.70194 
   74500    442.42271   -171.88303   -131.00091   -171.88303    24.752891    1948.8431            0            0   -2145.4791   -1.3955191    78.062393    9.0933491    7.8750661    7.4246748    531.68634 
   75000    310.00286   -182.59845    -153.9526   -182.59845    21.880311    1940.9919            0            0   -2145.4707   -1.2820351    -4077.715    9.3541104    8.1008918    7.6375851     578.7505 
   75500    449.73108   -168.51892   -126.96147   -168.51892    20.437339    1956.8996            0            0   -2145.8559   -1.5983954    2139.9929    8.6910928    7.5267021    7.0962345    464.20207 
   76000    489.61816   -174.36563   -129.12241   -174.36563    30.622453    1940.9538            0            0   -2145.9419   -1.5181343    3966.4213    8.8416314    7.6570722    7.2191485    488.74364 
   76500    342.07769   -163.31564   -131.70591   -163.31564    8.3577653    1974.3083            0            0   -2145.9817   -1.4410967   -4851.2888    8.9964551    7.7911534    7.3455613    514.87068 
   77000    429.02536   -170.33133   -130.68719   -170.33133    12.407655    1963.1207            0            0   -2145.8596   -1.2839195   -4747.1406    9.3495317    8.0969265    7.6338466    577.90106 
   77500    480.96139   -159.43854   -114.99524   -159.43854    1.9937963    1983.3741            0            0   -2144.8064   -1.3019725   -8340.6235    9.3061173    8.0593286    7.5983989    569.88795 
   78000    440.30124   -163.16291   -122.47683   -163.16291    13.875496    1968.6331            0            0   -2145.6716    -1.636156   -214.83302    8.6237118    7.4683484    7.0412182    453.48884 
   78500    571.84118   -179.54677   -126.70572   -179.54677    41.223912    1925.6315            0            0   -2146.4022   -1.4620523    6917.4242    8.9532661    7.7537507    7.3102977    507.49105 
   79000    342.46518   -163.53035   -131.88482   -163.53035    11.602252     1970.043            0            0   -2145.1756   -1.2629578   -5370.1153     9.400974    8.1414768     7.675849    587.49269 
   79500    462.27777   -174.30559   -131.58876   -174.30559     15.75621    1955.7881            0            0   -2145.8499   -1.5291724    -1647.712    8.8203059    7.6386038    7.2017363    485.21571 
   80000    506.01658   -166.07097   -119.31245   -166.07097    9.4651863    1969.8428            0            0    -2145.379   -1.4691896   -4197.9675    8.9387444    7.7411745    7.2984408    505.02568 
   80500     423.5606   -157.90528   -118.76611   -157.90528    29.572695    1957.1077            0            0   -2144.5856   -1.3531362     3589.662    9.1873154    7.9564432    7.5013978    548.33982 
   81000    382.32217   -171.42511   -136.09659   -171.42511    21.355784    1953.1394            0            0   -2145.9203   -1.5225422    950.85605    8.8330906    7.6496757     7.212175    487.32868 
   81500    584.76931   -170.08861   -116.05294   -170.08861    13.525798    1961.9892            0            0   -2145.6036   -1.4258711   -2305.2318    9.0283635    7.8187869    7.3716144    520.36853 
   82000    365.71796   -152.33115   -118.53694   -152.33115    30.105169    1962.4668            0            0   -2144.9032   -1.2682207     3454.612    9.3879519    8.1301994    7.6652165    585.05471 
   82500      434.463   -165.25051   -125.10391   -165.25051    22.517263    1958.0061            0            0   -2145.7738   -1.3202925   -942.50285    9.2628739    8.0218787    7.5630909    561.98038 
   83000    414.86203   -152.93372   -114.59834   -152.93372    22.337537    1969.0615            0            0   -2144.3328   -1.3803483    1469.9989    9.1265416    7.9038116    7.4517763    537.52989 
   83500    447.29339   -179.76416   -138.43196   -179.76416    23.450479    1941.7945            0            0   -2145.0091     -1.34785   -3110.1081    9.1993104    7.9668311    7.5111916    550.49037 
   84000    407.43777   -164.65544    -127.0061   -164.65544    11.008883    1970.0276            0            0   -2145.6919   -1.3293686   -4914.3708    9.2417451    8.0035807    7.5458394     558.1435 
   84500    317.64161   -167.68784   -138.33613   -167.68784    16.929331    1960.6378            0            0   -2145.2549   -1.6066553    -226.2475    8.6761735    7.5137816     7.084053     461.8156 
   85000    478.66378   -163.22513   -118.99415   -163.22513    10.081153    1971.0215            0            0   -2144.3278   -1.4139432   -4372.5321    9.0536801    7.8407117    7.3922852    524.75834 
   85500    502.07258    -172.8626   -126.46852    -172.8626     13.21176    1958.8808            0            0   -2144.9551   -1.3514616   -4388.3031    9.1911085    7.9597281    7.5044948    549.01927 
   86000    478.40816   -177.22936     -133.022   -177.22936    25.740526    1942.3815            0            0   -2145.3514   -1.3976793    127.13285    9.0886621     7.871007    7.4208478    530.86462 
   86500    480.64364   -176.12981   -131.71588   -176.12981    17.006563    1952.0153            0            0   -2145.1517   -1.4482915   -3808.8358     8.981533    7.7782305    7.3333775    512.31294 
   87000    376.67021   -175.06746   -140.26121   -175.06746    18.949503    1951.6175            0            0   -2145.6345   -1.4118615   -2663.2617    9.0581275    7.8445633    7.3959165    525.53204 
   87500    479.42522   -177.35451   -133.05317   -177.35451    20.114078    1948.1577            0            0   -2145.6263   -1.5291707   -1069.3743    8.8203091    7.6386066    7.2017389    485.21623 
   88000    523.27441   -157.29173    -108.9385   -157.29173    5.0841384    1983.8693            0            0   -2146.2452    -1.411356   -5435.8014    9.0592089    7.8454998    7.3967994    525.72028 
   88500    473.52028   -175.08443   -131.32874   -175.08443    26.898587    1943.8497            0            0   -2145.8327   -1.4574502    1403.8708      8.96268    7.7619033     7.317984    509.09353 
   89000    502.61216   -173.99357   -127.54964   -173.99357    18.514208    1952.2291            0            0   -2144.7368   -1.6273515    538.91881    8.6392361    7.4817929    7.0538937    455.94236 
   89500      391.937   -170.74106   -134.52408   -170.74106     28.81714    1945.4052            0            0   -2144.9634   -1.4755038    2638.2686    8.9259755    7.7301163     7.288015    502.86451 
   90000    535.59413   -174.26208   -124.77044   -174.26208    32.212575    1938.6313            0            0    -2145.106   -1.4118261    2623.3278    9.0582033    7.8446288    7.3959783    525.54522 
   90500    459.70677   -180.07432   -137.59507   -180.07432    9.9582598     1955.995            0            0   -2146.0276     -1.39256   -7515.2103    9.0997856    7.8806402    7.4299301    532.81616 
   91000    311.11787   -167.05636   -138.30748   -167.05636    22.560691    1955.7043            0            0   -2145.3213   -1.3955623   -1369.2919    9.0932554    7.8749848    7.4245982     531.6699 
   91500     516.2862   -175.67423   -127.96674   -175.67423    29.608713    1940.1559            0            0   -2145.4388   -1.3409574    554.54773    9.2150453    7.9804579    7.5240391    553.31995 
   92000    435.13145   -176.81194   -136.60357   -176.81194    18.793144    1950.5385            0            0   -2146.1436    -1.471477    -2059.792    8.9341101    7.7371611    7.2946569     504.2406 
   92500    493.14719   -172.49929   -126.92997   -172.49929    22.219796    1950.6514            0            0   -2145.3705   -1.4830696    1053.6334    8.9107712     7.716949    7.2756008    500.29917 
   93000     362.9134   -158.81292   -125.27787   -158.81292    12.384016    1973.5891            0            0    -2144.786   -1.3365498   -4049.5477    9.2251638    7.9892208    7.5323008    555.14466 
   93500     583.6533   -152.22136   -98.288816   -152.22136    21.479208     1970.265            0            0   -2143.9656    -1.410142    2987.0966    9.0618079    7.8477505    7.3989215    526.17288 
   94000    464.05321   -170.53219   -127.65131   -170.53219    16.504546    1958.8571            0            0   -2145.8939   -1.5619027    88.473758    8.7582595    7.5848701    7.1510757    475.04783 
   94500    448.92311   -175.78442   -134.30163   -175.78442     35.56315    1934.4626            0            0   -2145.8101   -1.5509107    5648.5828     8.778902     7.602747    7.1679302    478.41469 
   95000    476.68818   -184.34033   -140.29191   -184.34033    19.914794    1940.5597            0            0   -2144.8148   -1.5180817   -1926.7063    8.8417334    7.6571606    7.2192318    488.76056 
   95500    414.81424   -168.88033   -130.54938   -168.88033    20.972105    1955.9161            0            0   -2145.7685   -1.5042574    1210.5684    8.8687364    7.6805458    7.2412796    493.25233 
   96000    540.21552   -179.65269   -129.73401   -179.65269     22.71742    1943.2867            0            0   -2145.6568   -1.4460311   -245.55477    8.9862105    7.7822813    7.3371966    513.11377 
   96500    475.58738   -188.71732   -144.77061   -188.71732    37.597177    1919.7187            0            0   -2146.0332   -1.4575572    3808.5821    8.9624607    7.7617134     7.317805    509.05616 
   97000    425.47891    -165.7258   -126.40937    -165.7258    19.818713    1960.2685            0            0    -2145.813   -1.3118671   -2391.9296    9.2826616    8.0390154    7.5792475    565.58967 
   97500    400.86741   -156.62467   -119.58248   -156.62467    13.760666    1975.5102            0            0   -2145.8956   -1.2307414   -3530.3384    9.4822965    8.2119041    7.7422484    602.87115 
   98000     425.8031   -164.98922   -125.64283   -164.98922    21.597271     1959.483            0            0   -2146.0695   -1.4280956     171.9903    9.0236735    7.8147252     7.367785    519.55799 
   98500    576.11785   -180.85094    -127.6147   -180.85094     25.00626    1940.2528            0            0     -2146.11   -1.4674694    151.21757    8.9422357    7.7441981    7.3012914    505.61768 
   99000    473.34111   -169.98075   -126.24161   -169.98075    19.227267    1956.8271            0            0   -2146.0352   -1.4274755   -1456.3493    9.0249798    7.8158565    7.3688516    519.78366 
   99500    487.52326   -161.26487   -116.21523   -161.26487    19.521529    1963.7336            0            0     -2144.52   -1.4466263    261.41202    8.9849779    7.7812139    7.3361902    512.90266 
  100000     465.4377   -175.83764   -132.82881   -175.83764     16.37303    1953.4884            0            0    -2145.699   -1.5183575   -2273.6346    8.8411979    7.6566969    7.2187946    488.67177 
  100500    557.31843   -163.94925   -112.45017   -163.94925    29.242165    1952.0224            0            0   -2145.2138   -1.5512659    7178.9001    8.7782318    7.6021667    7.1673831    478.30514 
  101000    589.49504   -194.48688   -140.01452   -194.48688    23.551736    1928.1354            0            0    -2146.174   -1.5754489   -1921.3996    8.7330851    7.5630684     7.130521    470.96321 
  101500    495.31454   -195.73669    -149.9671   -195.73669     25.76787    1925.0573            0            0   -2146.5619   -1.6520598    888.68004    8.5959499    7.4443059    7.0185507    449.12324 
  102000    592.61718   -175.80823   -121.04738   -175.80823     19.83714    1949.8147            0            0     -2145.46    -1.372084   -3564.1549    9.1448286    7.9196485    7.4667075    540.76754 
  102500    506.44694    -190.3905   -143.59221    -190.3905    34.662952     1921.174            0            0   -2146.2275   -1.5640213    3939.8734     8.754303    7.5814436    7.1478452    474.40431 
  103000    399.47798   -181.12989   -144.21608   -181.12989    24.204357    1940.9589            0            0   -2146.2931   -1.3815329   -1060.2427    9.1239322    7.9015518    7.4496457    537.06897 
  103500    455.22447   -164.30218   -122.23711   -164.30218    21.553039    1959.7448            0            0   -2145.6001   -1.4527799    46.955315     8.972274     7.770212    7.3258175    510.73014 
  104000    589.05051   -175.34648    -120.9152   -175.34648    26.451404    1943.8448            0            0   -2145.6427   -1.5082583    1806.8935    8.8608876    7.6737486    7.2348711    491.94391 
  104500    429.95863   -169.35201   -129.62163   -169.35201    30.655212    1944.1209            0            0   -2144.1281   -1.3564688    2733.5518    9.1797854     7.949922    7.4952496    546.99266 
  105000    312.65914   -173.32944   -144.43813   -173.32944    20.172423    1952.2318            0            0   -2145.7336   -1.3410573   -2910.5069    9.2148163    7.9802597    7.5238522    553.27871 
  105500     399.0284   -192.51951   -155.64725   -192.51951    25.005441    1928.7709            0            0   -2146.2958   -1.4799481   -2328.7312    8.9170315    7.7223706    7.2807123    501.35437 
  106000    376.39411   -179.93157   -145.15083   -179.93157    25.715711    1940.3163            0            0   -2145.9636   -1.5330374    243.69327    8.8128873    7.6321792    7.1956791    483.99242 
  106500    521.92392   -170.32807   -122.09964   -170.32807     16.62315    1958.9762            0            0   -2145.9274   -1.4929742   -2451.6719    8.8910222    7.6998459    7.2594758    496.98009 
  107000    524.45443    -179.7349   -131.27263    -179.7349    15.958839    1950.1769            0            0   -2145.8706   -1.4296175    -3922.188    9.0204702    7.8119511    7.3651695    519.00487 
  107500     445.3177    -172.5484   -131.39876    -172.5484    7.1029621    1965.8427            0            0   -2145.4941    -1.518474   -5753.6016     8.840972    7.6565012    7.2186101     488.6343 
  108000    539.32962   -177.06958   -127.23277   -177.06958    19.879323    1948.3789            0            0   -2145.3278   -1.4485751   -1284.8005    8.9809469    7.7777229    7.3328989    512.21265 
  108500    540.22986   -176.15964   -126.23964   -176.15964    23.623529    1946.3026            0            0   -2146.0858   -1.5625742    1797.3157    8.7570046    7.5837833    7.1500511    474.84366 
  109000    409.87028   -169.29117   -131.41706   -169.29117    32.657547    1943.7402            0            0    -2145.689   -1.5303511    4964.6975    8.8180408    7.6366422    7.1998869    484.84199 
  109500    632.41783   -170.13819   -111.69955   -170.13819    16.191978    1958.2334            0            0   -2144.5636   -1.4744528   -2205.0363    8.9280957    7.7319525    7.2897462    503.22293 
  110000    327.36155   -194.62948   -164.37959   -194.62948    33.228569    1917.9435            0            0   -2145.8015   -1.3978606    136.00692     9.088269    7.8706665    7.4205269    530.79574 
  110500    437.14733   -191.95723   -151.56258   -191.95723     33.42868    1920.6295            0            0   -2146.0154   -1.5867147    2382.7615    8.7123675    7.5451265    7.1136051    467.61934 
  111000     568.1195   -169.61579   -117.11864   -169.61579    8.5157396    1967.3056            0            0   -2145.4371   -1.5294032   -4120.5628    8.8198621    7.6382195     7.201374    485.14247 
  111500    544.41521   -170.92634    -120.6196   -170.92634    35.279445    1939.3026            0            0   -2145.5084   -1.4199012    4901.2411     9.040999    7.8297296    7.3819312     522.5564 
  112000    469.34037    -157.7369   -114.36745    -157.7369    15.777796    1972.6701            0            0   -2146.1848   -1.4481578    441.71422    8.9818094    7.7784699    7.3336032    512.36024 
  112500    497.04792   -170.65813   -124.72837   -170.65813    23.456752    1952.3301            0            0    -2146.445   -1.6193099    3467.1296    8.6535134    7.4941574    7.0655511    458.20658 
  113000    404.09487   -178.94939   -141.60896   -178.94939    25.325927    1941.1543            0            0   -2145.4297   -1.5108222   -62.519463    8.8558722    7.6694051     7.230776    491.10904 
  113500    453.18151   -182.26556   -140.38927   -182.26556     29.45809     1934.164            0            0   -2145.8877   -1.4705527    1932.1542    8.9359816    7.7387819     7.296185    504.55755 
  114000    337.76406   -180.57981   -149.36868   -180.57981    31.013287    1933.6528            0            0   -2145.2459   -1.4113448    1801.5657    9.0592329    7.8455205     7.396819    525.72446 
  114500    445.83528    -171.3635   -130.16604    -171.3635    20.463561    1954.1844            0            0   -2146.0115   -1.2407652   -2258.8759    9.4566924    8.1897304    7.7213428    598.00071 
  115000    473.23873   -168.63035   -124.90067   -168.63035    33.650646    1942.6587            0            0   -2144.9397   -1.3406575    3050.2834    9.2157322    7.9810528    7.5245999    553.44369 
  115500    424.17193   -168.57037   -129.37472   -168.57037    14.379636    1962.3701            0            0   -2145.3201   -1.3464106   -4056.8022    9.2025876    7.9696693    7.5138675    551.07891 
  116000    532.68231   -185.22772   -136.00515   -185.22772    42.515382    1918.3656            0            0   -2146.1087   -1.4894034     7087.219    8.8981219    7.7059944    7.2652727    498.17159 
  116500    504.88398   -172.09909   -125.44523   -172.09909     24.10506    1948.8817            0            0   -2145.0859   -1.3324403   -1190.7046    9.2346381    7.9974258    7.5400366    556.85683 
  117000    518.80312   -172.52795   -124.58789   -172.52795    26.908638     1946.452            0            0   -2145.8886   -1.5690488    2685.9349     8.744943    7.5733377    7.1402029    472.88426 
  117500    429.89815    -180.5956   -140.87081    -180.5956     27.88263    1936.6779            0            0   -2145.1561   -1.4041882   -603.30597    9.0745972    7.8588264    7.4093639    528.40386 
  118000    452.85988   -164.24045   -122.39389   -164.24045    10.090094    1970.3295            0            0     -2144.66   -1.3944727   -4567.4202    9.0956232    7.8770354    7.4265315    532.08533 
  118500    444.81693   -178.54027   -137.43691   -178.54027    25.614732    1941.8402            0            0   -2145.9953   -1.4428795   -375.16509    8.9927484    7.7879433    7.3425348    514.23453 
  119000    335.44234    -195.1988   -164.20222    -195.1988    33.676197     1917.571            0            0    -2146.446    -1.603777    1117.9724    8.6813607    7.5182738    7.0882882     462.6444 
  119500    497.61615   -170.47447   -124.49219   -170.47447    31.017456     1944.545            0            0    -2146.037   -1.4325618    3980.2584    9.0142862    7.8065956    7.3601203    517.93819 
  120000    563.63837   -175.26215   -123.17909   -175.26215    27.389171    1943.9587            0            0     -2146.61   -1.5711831    3877.7562    8.7409815    7.5699069    7.1369683    472.24189 
  120500     358.3148   -178.01342    -144.9033   -178.01342    18.040111    1949.9354            0            0    -2145.989   -1.4284833   -3411.2355     9.022857    7.8140181    7.3671183    519.41696 
  121000    392.90621    -172.7773   -136.47076    -172.7773      22.2072    1950.4812            0            0   -2145.4657   -1.3376786   -1939.6347    9.2225681    7.9869729    7.5301814    554.67618 
  121500    434.96247   -181.88137   -141.68862   -181.88137    17.963046    1946.8288            0            0   -2146.6733   -1.5859258   -3296.9834    8.7138117    7.5463773    7.1147844    467.85193 
  122000    465.61603   -151.93716   -108.91186   -151.93716    21.164473    1972.1634            0            0    -2145.265   -1.2510126    704.97482    9.4308006    8.1673074    7.7002023    593.10229 
  122500      464.172    -183.6344   -140.74254    -183.6344    26.364272    1936.3751            0            0   -2146.3737   -1.5688651    400.00499    8.7452842    7.5736332    7.1404815    472.93961 
  123000    349.33155   -175.45851   -143.17848   -175.45851     10.21708    1960.1401            0            0   -2145.8157    -1.466546   -6022.1279    8.9441121    7.7458231    7.3028235    505.93603 
  123500    410.53147     -170.358   -132.42279     -170.358    11.213382    1963.7638            0            0   -2145.3352   -1.5398099   -3863.9933    8.7999477    7.6209731     7.185114    481.86367 
  124000     507.5136   -181.44825    -134.5514   -181.44825    36.150139    1928.1266            0            0   -2145.7249   -1.4845785     4685.744    8.9077511    7.7143336    7.2731349    499.79066 
  124500    505.07248   -162.44535   -115.77407   -162.44535    11.797618    1971.0395            0            0   -2145.2825   -1.3859316   -3630.7251    9.1142695    7.8931836    7.4417561    535.36442 
  125000     404.4837   -175.91495   -138.53859   -175.91495     16.82872    1952.1639            0            0   -2144.9076   -1.4663289   -3033.6669    8.9445535    7.7462054    7.3031839    506.01095 
  125500    417.19591   -181.82948   -143.27845   -181.82948    39.606993    1923.4184            0            0   -2144.8548   -1.4322048    4586.6025     9.015035    7.8072441    7.3607317    518.06728 
  126000    396.59436   -170.99496   -134.34762   -170.99496    27.815287    1947.2457            0            0   -2146.0559   -1.5801694    4270.0374    8.7243801    7.5555297    7.1234134    469.55627 
  126500    397.79597   -178.78955   -142.03117   -178.78955    22.170291    1945.0592            0            0    -2146.019   -1.4008194   -2396.0724    9.0818658    7.8651212    7.4152987     529.6746 
  127000    401.62757   -161.99071   -124.87827   -161.99071    25.485978    1958.0127            0            0   -2145.4894   -1.3572288     2188.062    9.1780716    7.9484378    7.4938503    546.68636 
  127500    494.20853   -173.49289   -127.82549   -173.49289    21.763731    1950.0377            0            0   -2145.2943   -1.5285511     794.5573    8.8215007    7.6396386    7.2027119    485.41292 
  128000    414.33278   -165.43446   -127.14799   -165.43446     35.78609    1943.7791            0            0   -2144.9996   -1.4452773    6069.6867    8.9877724     7.783634    7.3384719    513.38138 
  128500    535.79485    -193.7753   -144.26511    -193.7753    24.376195    1927.7472            0            0   -2145.8987   -1.3934659   -3279.4108    9.0978132     7.878932    7.4283197    532.46976 
  129000    394.03094   -177.56767    -141.1572   -177.56767    29.786869    1939.0085            0            0    -2146.363   -1.3416784    549.87072    9.2133942    7.9790281     7.522691    553.02258 
  129500     400.9129   -182.17627   -145.12987   -182.17627    19.631147    1944.4164            0            0   -2146.2239    -1.550517   -1292.5392    8.7796449    7.6033904    7.1685368    478.53616 
  130000    457.85376   -177.89928   -135.59125   -177.89928    39.284185    1929.1639            0            0   -2146.3474   -1.3766022    5142.8258    9.1348125    7.9109744    7.4585295    538.99263 
  130500    577.44815   -168.06412   -114.70496   -168.06412    16.611749    1960.6727            0            0   -2145.3485    -1.390902   -2545.3413    9.1033998    7.8837702    7.4328811    533.45128 
  131000    409.15769   -175.55812   -137.74986   -175.55812    30.274729    1939.6442            0            0    -2145.477   -1.4233879    1606.4447    9.0336108    7.8233312    7.3758987    521.27637 
  131500    428.88903   -178.48001   -138.84847   -178.48001    24.981182    1942.6199            0            0   -2146.0811   -1.3238795   -1939.3858    9.2545005    8.0146271    7.5562541    560.45772 
  132000    460.60326   -170.35053   -127.78844   -170.35053    22.089255    1951.9161            0            0   -2144.3559   -1.4640753   -825.17165    8.9491406    7.7501778    7.3069292    506.78984 
  132500    512.73057   -171.58048   -124.20156   -171.58048     21.68713     1951.987            0            0   -2145.2546   -1.3773444   -2249.3793    9.1331715    7.9095532    7.4571895    538.70219 
  133000    444.42753   -177.98346   -136.91609   -177.98346    18.554351    1949.4767            0            0   -2146.0145   -1.4809478   -3922.1214    8.9150246    7.7206326    7.2790737    501.01595 
  133500    516.64522    -187.6471   -139.90645    -187.6471    23.133368    1935.6342            0            0   -2146.4147   -1.5642672   -375.46549    8.7538443    7.5810464    7.1474707    474.32974 
  134000    466.47637   -174.34187   -131.23707   -174.34187    19.619003    1951.6748            0            0   -2145.6357   -1.3234392   -3482.6198    9.2555267    8.0155159     7.557092    560.64419 
  134500    464.10265   -181.70762   -138.82216   -181.70762     39.17437    1924.4682            0            0   -2145.3502   -1.3905041    4507.9721    9.1042682    7.8845222    7.4335901    533.60394 
  135000    407.17673   -172.67256   -135.04735   -172.67256    22.071712    1951.2004            0            0   -2145.9446   -1.3474999   -2321.4153    9.2001072    7.9675212    7.5118422    550.63343 
  135500     590.8922   -173.80101   -119.19955   -173.80101    21.189237    1950.9156            0            0   -2145.9059   -1.4623139   -1172.4682    8.9527322    7.7532883    7.3098617    507.40026 
  136000    362.21108   -183.82192   -150.35177   -183.82192    21.210503    1939.6517            0            0   -2144.6842   -1.4028346   -3452.9602     9.077515    7.8613533    7.4117463    528.91373 
  136500    391.62024   -185.89081    -149.7031   -185.89081    27.937941    1932.5753            0            0   -2146.4041   -1.5818729    884.25606    8.7212473    7.5528166    7.1208554    469.05061 
  137000    560.12736   -163.20784   -111.44921   -163.20784    2.6085201    1979.7588            0            0   -2145.5752   -1.3871544   -6953.9376    9.1115905    7.8908635    7.4395688    534.89247 
  137500    436.03686   -176.06852   -135.77648   -176.06852    4.1975326     1964.618            0            0    -2144.884   -1.5407349    -8312.937    8.7981864    7.6194478    7.1836758    481.57439 
  138000    397.02381   -189.70713    -153.0201   -189.70713    33.603056     1923.235            0            0   -2146.5452   -1.5092684    1689.8444    8.8589103    7.6720362    7.2332566    491.61466 
  138500    423.86886   -164.24197   -125.07432   -164.24197    11.438994    1969.5862            0            0   -2145.2672   -1.2559964   -4422.5493    9.4183103    8.1564905     7.690004    590.74886 
  139000    453.03151   -175.77824   -133.91581   -175.77824    12.681337    1957.0956            0            0   -2145.5552   -1.4497625   -5662.2692    8.9784942    7.7755988    7.3308963     511.7931 
  139500    443.34686   -160.26064   -119.29312   -160.26064    22.191152    1963.3297            0            0   -2145.7815   -1.5504608    2481.2468    8.7797511    7.6034824    7.1686235    478.55353 
  140000    494.48878    -167.7418   -122.04851    -167.7418    31.896399     1946.384            0            0   -2146.0222   -1.3547472    2890.2402    9.1836723    7.9532881    7.4984232    547.68777 
  140500    444.84176   -179.58541   -138.47976   -179.58541    24.880914    1941.3186            0            0    -2145.785   -1.4403483    468.84543    8.9980132    7.7925028    7.3468335    515.13824 
  141000    412.64105   -176.31456   -138.18441   -176.31456    26.420207    1943.1923            0            0   -2145.9271   -1.5373569    3745.9597    8.8046257    7.6250244    7.1889335    482.63254 
  141500    355.99772    -171.7616   -138.86559    -171.7616    11.089688    1963.2409            0            0   -2146.0922    -1.470286   -5727.8663    8.9365219    7.7392498    7.2966261    504.64907 
  142000    449.60233   -172.33629   -130.79074   -172.33629    21.500002    1951.6171            0            0   -2145.4534   -1.3336548   -1914.5547    9.2318339    7.9949973    7.5377469    556.34969 
  142500    384.30342   -184.59171   -149.08011   -184.59171    25.286032    1936.0126            0            0   -2145.8903   -1.4737842   -1889.9179    8.9294456    7.7331215    7.2908483    503.45121 
  143000    328.09579   -181.30468   -150.98695   -181.30468    26.236301    1938.6911            0            0   -2146.2321   -1.5023551   -172.26776     8.872478    7.6837862    7.2443346    493.87689 
  143500    526.13728   -162.67334   -114.05556   -162.67334    17.526933    1964.7934            0            0   -2144.9937   -1.2653852   -1905.2846    9.3949587    8.1362674    7.6709375    586.36567 
  144000    362.64677   -170.72447   -137.21406   -170.72447    17.510027    1957.8722            0            0   -2146.1067   -1.4836238   -2130.5602    8.9096613    7.7159879    7.2746946    500.11226 
  144500     437.2235   -179.24257   -138.84088   -179.24257    20.954024    1945.9935            0            0   -2146.1901   -1.3548958   -3688.9841    9.1833366    7.9529974    7.4981491    547.62771 
  145000    498.44575    -171.8153   -125.75637    -171.8153    31.035363    1942.9013            0            0    -2145.752   -1.4106764     3038.164    9.0606634    7.8467594     7.397987    525.97354 
  145500    424.15456   -192.01766   -152.82362   -192.01766    45.038227    1908.8702            0            0   -2145.9261   -1.4201063    5146.2278    9.0405637    7.8293525    7.3815757    522.48092 
  146000    384.25461   -161.17641   -125.66932   -161.17641    23.642885    1959.8818            0            0   -2144.7011   -1.4151783    1638.4039    9.0510455    7.8384301    7.3901341    524.30036 
  146500    524.98477   -176.63982   -128.12854   -176.63982     22.19289     1946.726            0            0   -2145.5587   -1.3890674   -826.90324    9.1074058    7.8872395     7.436152    534.15583 
  147000     413.6939   -171.96055   -133.73312   -171.96055    17.104608     1956.751            0            0   -2145.8162   -1.6589925   -934.26292    8.5839594    7.4339219    7.0087606    447.24642 
  147500    410.67149   -180.34256   -142.39442   -180.34256    10.570599    1953.9809            0            0   -2144.8941   -1.4994923   -7998.9597    8.8781209    7.6886731     7.248942    494.81981 
  148000    472.51663   -149.59498   -105.93203   -149.59498    15.817418    1980.1307            0            0   -2145.5431   -1.3757228   -72.726279    9.1367586    7.9126597    7.4601184    539.33717 
  148500    491.16485   -173.23227   -127.84613   -173.23227     20.18573    1952.9649            0            0   -2146.3829   -1.5417515   -737.48664    8.7962522    7.6177727    7.1820966    481.25685 
  149000    443.75061   -175.47585   -134.47102   -175.47585    29.226077    1939.9668            0            0   -2144.6687    -1.378889    110.77934      9.12976    7.9065988    7.4544041    538.09876 
  149500     454.5271   -185.61374   -143.61311   -185.61374    25.437436    1935.3523            0            0   -2146.4035   -1.5761449   -647.13901    8.7317994     7.561955    7.1294712    470.75523 
  150000    479.95446   -178.35355   -134.00331   -178.35355    11.835307    1956.4604            0            0   -2146.6492   -1.4523915   -5911.4689    8.9730736    7.7709045    7.3264704    510.86671 
  150500    516.94836   -181.49845   -133.72978   -181.49845    27.752815     1936.444            0            0   -2145.6953   -1.3579312    429.76538    9.1764889    7.9470672     7.492558    546.40359 
  151000     478.4395   -186.31485    -142.1046   -186.31485    26.369509    1933.4148            0            0   -2146.0992   -1.5203468    672.20094    8.8373403    7.6533561    7.2156448    488.03239 
  151500    483.89337   -179.58303   -134.86881   -179.58303    33.909901    1932.2465            0            0   -2145.7394   -1.5054805    4031.1695     8.866334    7.6784653    7.2393181    492.85161 
  152000    482.36295   -184.22674   -139.65394   -184.22674    16.571548    1945.0862            0            0   -2145.8845   -1.2966389   -6003.7304    9.3188598    8.0703639    7.6088032    572.23214 
  152500    367.12533   -178.84248   -144.91822   -178.84248    32.973416    1934.1683            0            0   -2145.9842   -1.5011205    3828.4775    8.8749098    7.6858922    7.2463201    494.28309 
  153000    466.94492   -159.97277   -116.82467   -159.97277    10.659292    1973.2685            0            0   -2143.9006   -1.3087813   -3840.9184    9.2899512    8.0453283    7.5851994    566.92317 
  153500    460.65253    -177.4748   -134.90815    -177.4748     15.81613    1952.3919            0            0   -2145.6828   -1.4631785   -4107.8041    8.9509686    7.7517609    7.3084218    507.10046 
  154000    481.68189   -182.43059   -137.92072   -182.43059    15.981624    1947.6974            0            0   -2146.1096    -1.543883   -3340.7756    8.7922022    7.6142653    7.1787898    480.59241 
  154500    396.23559     -165.331   -128.71681     -165.331    21.082638    1959.0595            0            0   -2145.4731   -1.4682451    216.53441    8.9406607     7.742834    7.3000054    505.35055 
  155000    469.74277   -167.45924   -124.05261   -167.45924    32.909876    1945.1465            0            0   -2145.5156    -1.397512    4455.7689    9.0890246    7.8713209    7.4211438    530.92814 
  155500    440.53004   -185.61155   -144.90432   -185.61155    30.076039    1928.7807            0            0   -2144.4683   -1.7602851    5646.0326    8.4160465    7.2885052    6.8716605     421.5104 
  156000    366.38142   -176.91886   -143.06334   -176.91886    22.163269    1947.0798            0            0   -2146.1619   -1.4330758   -2134.2865    9.0132083    7.8056621    7.3592402    517.75242 
  156500    415.22414   -187.80144   -149.43261   -187.80144    28.545909    1928.7648            0            0   -2145.1122   -1.5745307    663.56398    8.7347823    7.5645383    7.1319067    471.23785 
  157000    412.29845   -169.87875   -131.78027   -169.87875    22.002287    1952.4461            0            0   -2144.3272   -1.5406277    2419.9729    8.7983904    7.6196245    7.1838425     481.6079 
  157500    424.33525   -168.56401   -129.35327   -168.56401    29.204215    1947.8872            0            0   -2145.6555   -1.2877941    1872.5419    9.3401458    8.0887981    7.6261831    576.16235 
  158000     394.6514   -169.08808   -132.62027   -169.08808    22.358541    1954.4649            0            0   -2145.9115   -1.3355888   -1458.8605    9.2273757    7.9911364    7.5341068    555.54407 
  158500    540.33843   -162.03292   -112.10289   -162.03292    13.443054     1969.872            0            0    -2145.348   -1.5508556     1231.905    8.7790059     7.602837    7.1680151    478.43169 
  159000     505.8696    -177.5191   -130.77416    -177.5191     27.51047    1941.2434            0            0    -2146.273    -1.539355    3110.1352    8.8008146    7.6217239    7.1858217    482.00608 
  159500    475.81019   -171.43892   -127.47162   -171.43892    36.395798    1937.5834            0            0   -2145.4181   -1.2647781    3882.9734    9.3964617     8.137569    7.6721647    586.64713 
  160000    409.62596   -171.40952   -133.55799   -171.40952     11.89237    1962.3252            0            0   -2145.6271   -1.4142421   -5598.8987    9.0530423    7.8401593    7.3917644    524.64744 
  160500    511.09031   -178.43098   -131.20362   -178.43098    28.344169    1938.1908            0            0   -2144.9659   -1.3392015   -919.45778    9.2190709    7.9839443     7.527326    554.04543 
  161000    515.62191   -166.72453   -119.07843   -166.72453    24.467557    1955.2982            0            0   -2146.4903   -1.5165795     2994.432    8.8446517    7.6596879    7.2216145    489.24468 
  161500    364.27413   -170.18666   -136.52587   -170.18666      17.2471    1957.6005            0            0   -2145.0342   -1.4032558   -3469.5665    9.0766067    7.8605667    7.4110047    528.75497 
  162000    437.58763   -176.58073   -136.14539   -176.58073     27.49728     1942.065            0            0    -2146.143   -1.4139477    806.56114    9.0536706    7.8407034    7.3922774    524.75667 
  162500    441.38079   -170.35229   -129.56645   -170.35229    19.604886    1955.2572            0            0   -2145.2143   -1.4143929   -1774.4309    9.0527204    7.8398806    7.3915016    524.59147 
  163000     475.4349   -190.30248   -146.36987   -190.30248    26.750119    1929.4265            0            0   -2146.4791   -1.5486353   -828.46662    8.7831995    7.6064688    7.1714391    479.11763 
  163500    695.84918   -188.05079   -123.75077   -188.05079    29.252119    1928.7282            0            0   -2146.0311   -1.6741765    2660.2759    8.5579297    7.4113796    6.9875075    443.19011 
  164000    486.62246   -174.08214   -129.11574   -174.08214    23.424894     1948.083            0            0     -2145.59   -1.5559473    1156.5167    8.7694194    7.5945348    7.1601877    476.86607 
  164500    496.59843    -172.1421   -126.25387    -172.1421    4.3811642    1969.0779            0            0   -2145.6012   -1.3778312   -8268.3131    9.1320957    7.9086216    7.4563112    538.51186 
  165000    481.04081    -173.7405   -129.28987    -173.7405    29.767288    1939.7903            0            0   -2143.2981   -1.3645096    1714.0547    9.1617182    7.9342754    7.4804978    543.76932 
  165500     541.2908   -177.33162   -127.31358   -177.33162    41.469366    1926.6649            0            0   -2145.4659   -1.5198185     7982.613     8.838364    7.6542426    7.2164807    488.20201 
  166000    384.99546   -167.95364   -132.37809   -167.95364    11.610083    1965.5278            0            0   -2145.0916   -1.5410669   -3745.4131    8.7975546    7.6189006      7.18316    481.47065 
  166500    377.62627   -174.09216   -139.19756   -174.09216     16.81213    1954.6206            0            0   -2145.5249   -1.4554204   -3886.7623    8.9668447    7.7655101    7.3213845    509.80355 
  167000    489.93881   -171.72309   -126.45024   -171.72309    18.971956    1955.9181            0            0   -2146.6131   -1.5275378   -457.68448    8.8234509    7.6413275    7.2043042    485.73493 
  167500    459.55745   -175.67547   -133.21002   -175.67547    35.701345    1934.1922            0            0   -2145.5691   -1.5208671    6060.3219    8.8363324    7.6524832    7.2148219    487.86543 
  168000    422.93525   -151.67983   -112.59845   -151.67983    11.279535    1982.2843            0            0   -2145.2437   -1.1830873   -3137.0791    9.6079382     8.320713    7.8448342    627.15446 
  168500    432.91738   -183.22804   -143.22426   -183.22804    36.171293    1927.2296            0            0    -2146.629   -1.6245631    6083.4341    8.6441761     7.486071    7.0579272    456.72493 
  169000    540.98319   -166.39985   -116.41023   -166.39985    31.889899    1947.0168            0            0   -2145.3066   -1.4557224    4916.7088    8.9662246     7.764973    7.3208782    509.69779 
  169500    482.96078   -173.96152   -129.33347   -173.96152    39.715742    1932.0821            0            0   -2145.7593   -1.5657002    9763.1395    8.7511728    7.5787328    7.1452895    473.89561 
  170000    430.76662   -166.16171   -126.35667   -166.16171     16.60653    1962.5809            0            0   -2145.3491   -1.3135262    -3234.905    9.2787517    8.0356293    7.5760551    564.87528 
  170500    492.14439   -182.40422   -136.92756   -182.40422    35.449148    1928.4144            0            0   -2146.2678   -1.5755569    4714.0648    8.7328855    7.5628956     7.130358    470.93092 
  171000    492.23016   -165.80927   -120.32469   -165.80927    21.486728     1957.734            0            0     -2145.03   -1.4166071    1505.5511    9.0480014    7.8357938    7.3876486    523.77154 
  171500    366.33532   -165.20335    -131.3521   -165.20335    8.3705621     1970.789            0            0   -2144.3629   -1.4032471   -5770.4795    9.0766255     7.860583      7.41102    528.75826 
  172000    459.77056   -157.34814   -114.86299   -157.34814    8.3690644    1978.4849            0            0   -2144.2021    -1.364753   -4162.5636    9.1611735    7.9338037    7.4800531    543.67234 
  172500    539.67966   -183.16879   -133.29964   -183.16879    21.202486    1941.1888            0            0   -2145.5601   -1.5232774   -1227.7741    8.8316694    7.6484449    7.2110145    487.09348 
  173000    387.00229   -187.49259    -151.7316   -187.49259    31.852312    1926.8412            0            0   -2146.1861   -1.4191852   -110.62494    9.0425192    7.8310461    7.3831724    522.82004 
  173500    372.24386   -182.92198   -148.52474   -182.92198    17.096055    1945.9305            0            0   -2145.9486    -1.479995   -4385.0266    8.9169373    7.7222891    7.2806354    501.33849 
  174000     399.3714   -177.63305   -140.72909   -177.63305    26.520392    1941.2567            0            0   -2145.4101   -1.4731293    656.51973    8.9307687    7.7342673    7.2919286    503.67504 
  174500    490.66117   -179.01878   -133.67918   -179.01878    19.909164     1947.084            0            0    -2146.012   -1.4121392   -2069.1487    9.0575338    7.8440491    7.3954317    525.42871 
  175000    482.38387   -168.86788   -124.29315   -168.86788    16.619187    1959.6093            0            0   -2145.0963   -1.5029511    -2103.098     8.871305    7.6827704    7.2433769    493.68104 
  175500    411.11661   -177.90036   -139.91108   -177.90036    21.972389     1945.907            0            0   -2145.7798   -1.5037697   -949.13965     8.869695     7.681376    7.2420623     493.4123 
  176000    369.83778   -184.19706   -150.02216   -184.19706    36.236977    1924.8514            0            0   -2145.2854   -1.5061827    5059.5126     8.864956    7.6772719    7.2381929    492.62184 
  176500    396.63162   -171.91942   -135.26863   -171.91942    16.479572    1956.1756            0            0   -2144.5746   -1.4736604   -3686.6827    8.9296957    7.7333382    7.2910526    503.49353 
  177000    494.96775   -183.15309   -137.41554   -183.15309    31.187047    1931.7463            0            0   -2146.0864   -1.3092031   -163.27149    9.2889536    8.0444644    7.5843849    566.74055 
  177500    466.23968   -179.09924   -136.01631   -179.09924    28.792762    1937.2374            0            0   -2145.1294   -1.3931131     37.86232    9.0985811    7.8795971    7.4289467    532.60461 
  178000    403.18342   -184.36695   -147.11074   -184.36695     32.68313    1928.5201            0            0   -2145.5702   -1.3964777    1809.3904    9.0912681    7.8732638    7.4229756    531.32139 
  178500    462.94731   -171.45553   -128.67684   -171.45553    11.976917    1962.6334            0            0   -2146.0659    -1.486441   -4518.8244    8.9040291    7.7111102    7.2700959    499.16442 
  179000    385.08517   -164.41409   -128.83025   -164.41409    13.893971    1966.5806            0            0   -2144.8886   -1.3364945    -4217.671    9.2252909    7.9893309    7.5324046     555.1676 
  179500    394.41613   -174.18477    -137.7387   -174.18477    15.926146    1955.6369            0            0   -2145.7479   -1.3572199   -3176.9805    9.1780916    7.9484552    7.4938666    546.68994 
  180000    598.59458   -187.04357   -131.73037   -187.04357    36.613372     1922.602            0            0    -2146.259   -1.6607261    7967.0542    8.5809716    7.4313344     7.006321    446.77956 
  180500    618.33652   -164.22236    -107.0849   -164.22236    18.510109      1961.97            0            0   -2144.7025   -1.3772159   -1565.6641    9.1334555    7.9097992    7.4574214    538.75245 
  181000    412.38908   -178.51618   -140.40932   -178.51618    34.917059    1932.4796            0            0   -2145.9128   -1.5699147    5198.4284    8.7433349     7.571945    7.1388899    472.62343 
  181500    380.37888   -162.88498   -127.73603   -162.88498    13.919034     1968.082            0            0   -2144.8861   -1.4151422   -2265.0939    9.0511224    7.8384967    7.3901969    524.31372 
  182000    553.24878   -173.19875   -122.07573   -173.19875    11.297763    1960.4654            0            0   -2144.9619   -1.5208025   -3912.1248    8.8364575    7.6525915     7.214924    487.88615 
  182500    477.59115   -169.59988   -125.46802   -169.59988     22.72187    1953.3173            0            0   -2145.6391   -1.3545208   -80.199458    9.1841838    7.9537312    7.4988409    547.77929 
  183000    420.25708   -173.97077   -135.13687   -173.97077    28.755314     1942.999            0            0   -2145.7251   -1.3765667    805.89169    9.1348912    7.9110425    7.4585937    539.00656 
  183500    471.65058   -182.67647   -139.09354   -182.67647    31.503861    1932.0985            0            0   -2146.2788   -1.6189965    5706.0747    8.6540717    7.4946409    7.0660069    458.29528 
  184000    444.51744   -174.07212   -132.99644   -174.07212      17.2243    1954.1261            0            0   -2145.4226   -1.5147508   -907.63498    8.8482097    7.6627692    7.2245196    489.83535 
  184500    480.61523   -175.98054   -131.56924   -175.98054    31.015114    1937.1452            0            0   -2144.1409   -1.6104009    6146.8304    8.6694416    7.5079516    7.0785564    460.74145 
  185000    529.91886   -184.06516   -135.09795   -184.06516    21.456544    1940.5952            0            0   -2146.1169   -1.5519226   -1804.9887    8.7769936    7.6010943     7.166372    478.10276 
  185500    434.72319   -175.70688   -135.53624   -175.70688    27.918266    1941.6032            0            0   -2145.2283   -1.4160256      530.953    9.0492399    7.8368663    7.3886598    523.98663 
[...]
  756000    255.55521   -220.79692   -197.18231   -220.79692    49.151404     1884.238            0            0   -2154.1863   -1.4247653   -234.71908    9.0306987    7.8208092     7.373521    520.77241 
  756500    347.27478   -224.48625   -192.39629   -224.48625    45.126565    1884.0848            0            0   -2153.6976   -1.3489682   -2864.8613     9.196768    7.9646293    7.5091157    550.03408 
  757000    306.70032   -230.19533   -201.85466   -230.19533    49.443241    1874.3136            0            0   -2153.9522   -1.3558061   -1518.5233    9.1812809    7.9512171    7.4964706    547.26003 
  757500    290.40497   -228.25854   -201.42363   -228.25854    58.613197    1866.8855            0            0   -2153.7572     -1.41408    2533.1882    9.0533881    7.8404588    7.3920468    524.70756 
  758000    259.63859   -232.11519   -208.12326   -232.11519    47.130078    1874.9675            0            0   -2154.2128   -1.3835847    -2328.287    9.1194199    7.8976439    7.4459614    536.27252 
  758500    293.41351   -223.62764   -196.51473   -223.62764     59.27098    1871.4086            0            0   -2154.3072   -1.4619877    4852.0058     8.953398    7.7538649    7.3104054    507.51348 
  759000    356.82921     -229.779   -196.80616     -229.779    34.941676    1889.2058            0            0   -2153.9264   -1.3334308   -7208.1956    9.2323509     7.995445     7.538169    556.44317 
  759500    324.34846   -229.71518   -199.74373   -229.71518    56.540429    1867.7929            0            0   -2154.0485   -1.4287703    2676.5167    9.0222529    7.8134949     7.366625    519.31264 
  760000    309.80645   -236.40092   -207.77322   -236.40092    48.802287    1869.0468            0            0     -2154.25   -1.3996448   -2458.8446    9.0844057    7.8673209    7.4173726    530.11913 
  760500    314.81079   -233.08189   -203.99176   -233.08189    45.053159    1875.7568            0            0   -2153.8919   -1.3852383   -3256.2579    9.1157897    7.8945001    7.4429974    535.63235 
  761000    316.14314   -237.53684    -208.3236   -237.53684    65.432065    1851.3245            0            0   -2154.2934   -1.4402609    5654.9084    8.9981951    7.7926603     7.346982    515.16947 
  761500    294.55537    -229.6012   -202.38277    -229.6012    37.168725    1887.3656            0            0   -2154.1355    -1.382305   -5759.6238    9.1222333    7.9000804    7.4482585      536.769 
  762000    371.25295   -232.61238   -198.30671   -232.61238    47.740861     1873.705            0            0   -2154.0583   -1.3873775   -1949.2299    9.1111021    7.8904405      7.43917    534.80646 
  762500    281.23335    -229.9841    -203.9967    -229.9841    52.747514    1871.5554            0            0    -2154.287    -1.406268    397.81126    9.0701214    7.8549502    7.4057094    527.62238 
  763000     315.8423   -221.79876   -192.61332   -221.79876    51.300392    1880.8868            0            0   -2153.9859   -1.3929021    635.90736    9.0990405    7.8799949    7.4293218    532.68529 
  763500     264.1481   -225.26214   -200.85351   -225.26214    48.584405      1880.11            0            0   -2153.9565   -1.3877823   -597.84633    9.1102162    7.8896733    7.4384466    534.65047 
  764000    337.97527   -231.03338   -199.80273   -231.03338    57.086632     1865.679            0            0   -2153.7991   -1.3978138    1522.0837    9.0883704    7.8707544    7.4206097    530.81351 
  764500    250.67683   -235.58327   -212.41945   -235.58327    58.191998    1860.3922            0            0   -2154.1675   -1.4567562    2293.7483    8.9641031    7.7631358     7.319146    509.33607 
  765000    337.60874    -228.7152   -197.51842    -228.7152    50.772395    1874.3982            0            0   -2153.8858   -1.3823238   -392.52023     9.122192    7.9000447    7.4482248    536.76171 
  765500     272.0188   -224.53938   -199.40346   -224.53938     53.44432    1876.1536            0            0   -2154.1373   -1.3605129    901.34121    9.1706809    7.9420372    7.4878158    545.36674 
  766000    403.54775    -232.4163   -195.12643    -232.4163    67.627332    1854.2833            0            0    -2154.327   -1.4182006      6157.59    9.0446114     7.832858    7.3848807    523.18303 
  766500    318.71486   -228.57622   -199.12534   -228.57622    37.552263     1888.159            0            0   -2154.2874    -1.329231   -5730.2586     9.242064    8.0038568    7.5460997    558.20128 
  767000    276.19923   -224.38915   -198.86693   -224.38915    39.405634    1890.2835            0            0   -2154.0783   -1.3156682   -4927.9257    9.2737134    8.0312659    7.5719413     563.9556 
  767500    283.15426   -230.80068   -204.63577   -230.80068    59.680947    1863.5495            0            0   -2154.0311   -1.4302431    3741.8337    9.0191549     7.810812    7.3640956    518.77788 
  768000    254.96059   -229.32219   -205.76252   -229.32219    51.355525    1873.3658            0            0   -2154.0435   -1.3875207   -455.02996    9.1107886    7.8901691     7.438914    534.75126 
  768500    337.57182    -227.6169   -196.42354    -227.6169     50.28448    1876.0937            0            0    -2153.995    -1.409958   -383.47627     9.062202    7.8480919    7.3992433    526.24154 
  769000    393.65285   -236.88255   -200.50702   -236.88255    57.795847    1859.6222            0            0   -2154.3006   -1.4005103    1581.1308    9.0825339    7.8656998    7.4158442     529.7915 
  769500    234.50137   -231.83928   -210.17015   -231.83928    58.894049    1863.3672            0            0   -2154.1005   -1.3896879    2055.3068    9.1060503    7.8860655    7.4350452    533.91735 
  770000    269.19096   -236.32876   -211.45414   -236.32876    46.256161    1871.2872            0            0   -2153.8721   -1.3573016   -4407.9584    9.1779075    7.9482957    7.4937163    546.65703 
  770500    247.55573   -224.80856   -201.93314   -224.80856    54.620316    1874.7241            0            0    -2154.153   -1.4095393    1961.9876    9.0630991    7.8488688    7.3999758    526.39784 
  771000    277.37701   -235.86741   -210.23636   -235.86741    50.155898    1868.1152            0            0   -2154.1386   -1.3625493   -2046.4285    9.1661098    7.9380786    7.4840835    544.55165 
  771500    252.83333   -237.86202   -214.49893   -237.86202    67.135257    1849.3136            0            0   -2154.3109   -1.4409858    4832.9807    8.9966861    7.7913534    7.3457499    514.91033 
  772000    286.42258   -234.20866   -207.74175   -234.20866    53.786263    1866.2826            0            0   -2154.2776   -1.3897376   -655.11446    9.1059417    7.8859715    7.4349565    533.89825 
  772500    342.62143   -229.16784   -197.50787   -229.16784     50.34439     1874.642            0            0   -2154.1542   -1.4020611   -212.81627    9.0791839    7.8627987     7.413109    529.20551 
  773000    241.38079   -227.70721   -205.40239   -227.70721    43.420117    1882.9451            0            0   -2154.0725   -1.3644365   -3563.2298    9.1618818     7.934417    7.4806314    543.79845 
  773500    378.43951   -232.00505   -197.03531   -232.00505    57.357248    1864.8782            0            0   -2154.2405   -1.4506472     2578.854    8.9766687    7.7740179    7.3294058      511.481 
  774000    289.95121   -228.37909   -201.58611   -228.37909    65.396407    1860.2016            0            0   -2153.9771   -1.4680216    5591.2931    8.9411144     7.743227    7.3003759     505.4275 
  774500    263.90144   -232.66351   -208.27767   -232.66351    40.981677    1880.1965            0            0   -2153.8417    -1.379564   -5967.0575    9.1282708    7.9053091    7.4531881    537.83549 
  775000    277.44287   -230.09369   -204.45655   -230.09369    64.844517    1859.3075            0            0   -2154.2457   -1.4296463    5560.1622    9.0204096    7.8118986      7.36512    518.99442 
  775500    287.25459   -229.51231   -202.96852   -229.51231    52.766841    1871.8791            0            0   -2154.1582   -1.4088306    900.10281    9.0646187    7.8501848    7.4012165    526.66266 
  776000    241.06919   -230.59258   -208.31656   -230.59258    50.148298     1873.479            0            0   -2154.2199   -1.3650863   -1060.6503    9.1604279    7.9331579    7.4794443     543.5396 
  776500    323.87641   -226.74144    -196.8136   -226.74144    43.078797    1884.2772            0            0   -2154.0974   -1.3470553   -3865.5787    9.2011192    7.9683976    7.5126685    550.81515 
  777000    191.72691   -229.94428   -212.22773   -229.94428    51.176687    1872.9327            0            0   -2154.0537    -1.431935   -598.13923    9.0156012    7.8077344     7.361194    518.16489 
  777500    271.67532   -229.43468   -204.33049   -229.43468    53.523678    1870.9796            0            0   -2153.9379   -1.3926342    848.01805     9.099624    7.8805002    7.4297982    532.78777 
  778000     262.0499   -227.92714   -203.71239   -227.92714    44.645871     1881.497            0            0   -2154.0701   -1.3704705   -2926.0984    9.1484159    7.9227553    7.4696365    541.40419 
  778500    272.88348    -236.6604   -211.44457    -236.6604    55.503831    1862.1391            0            0   -2154.3033   -1.3967922   -99.030077    9.0905856    7.8726728    7.4224184    531.20175 
  779000    281.31762   -237.88775   -211.89256   -237.88775    52.327496    1863.8828            0            0    -2154.098   -1.3707153   -1419.5767    9.1478712    7.9222835    7.4691918    541.30749 
  779500    319.72838   -232.85676   -203.31222   -232.85676    60.013302    1861.0463            0            0   -2153.9163   -1.3993373    2695.5085    9.0850711    7.8678971    7.4179158    530.23562 
  780000    244.63735   -230.43771   -207.83197   -230.43771    54.186855    1869.5932            0            0   -2154.2177   -1.3972293    359.24634    9.0896377    7.8718518    7.4216444    531.03558 
  780500    280.61235   -236.38097   -210.45095   -236.38097    55.485126    1862.4207            0            0   -2154.2868   -1.4246828    418.24523    9.0308731    7.8209602    7.3736634    520.80258 
  781000    243.87726    -228.4554    -205.9199    -228.4554    55.941912     1869.828            0            0   -2154.2253   -1.4071812    2683.9696    9.0681589    7.8532506     7.404107    527.27996 
  781500    273.31649   -231.34413   -206.08829   -231.34413    44.212104    1878.6725            0            0   -2154.2288   -1.3880051    -2979.214    9.1097288    7.8892512    7.4380487    534.56466 
  782000    198.86688   -225.45517   -207.07886   -225.45517    45.393676    1883.2458            0            0   -2154.0947   -1.3923513   -1991.8635    9.1002402    7.8810339    7.4303013    532.89602 
  782500    281.76131   -225.90696   -199.87078   -225.90696    41.681115    1886.2852            0            0   -2153.8733   -1.3745021   -3744.6709    9.1394626    7.9150014    7.4623262    539.81617 
  783000    351.59791   -232.51054    -200.0211   -232.51054    54.521126     1867.135            0            0   -2154.1667   -1.4031832     596.0342    9.0767633    7.8607023    7.4111325    528.78233 
  783500    324.94742   -229.14008   -199.11327   -229.14008      49.2918    1875.9064            0            0   -2154.3383   -1.3952375   -714.28803    9.0939609    7.8755959    7.4251743    531.79367 
  784000    283.91443   -232.76798   -206.53284   -232.76798    59.272629    1862.2196            0            0   -2154.2602   -1.4190379    2570.8678     9.042832     7.831317    7.3834278     522.8743 
  784500    229.52608    -229.2746   -208.06522    -229.2746    46.463788    1878.3751            0            0   -2154.1135   -1.3677967   -2817.7772    9.1543733    7.9279145    7.4745007    542.46255 
  785000    333.34496   -230.02242   -199.21964   -230.02242    53.998369    1870.1067            0            0   -2154.1275   -1.4417227    1590.6715    8.9951529    7.7900257     7.344498    514.64713 
  785500    353.70954   -229.87732   -197.19276   -229.87732     49.96487    1874.1738            0            0    -2154.016   -1.4300119    561.42443    9.0196409    7.8112329    7.3644923    518.86174 
  786000    321.82537   -227.33857   -197.60026   -227.33857    49.972676    1877.0575            0            0   -2154.3688   -1.3990445   -596.08411    9.0857048    7.8684459    7.4184333    530.34659 
  786500    286.09306   -233.09676    -206.6603   -233.09676    50.361996    1870.3945            0            0   -2153.8532   -1.3965234   -1406.7013    9.0911688    7.8731779    7.4228946    531.30399 
  787000    287.64731   -229.80049   -203.22041   -229.80049    63.178889    1861.2117            0            0   -2154.1911   -1.4280158    5327.8338    9.0238416    7.8148708    7.3679222    519.58702 
  787500     258.3819   -234.13013   -210.25432   -234.13013    51.737797    1868.1975            0            0   -2154.0654   -1.3926624     -600.895    9.0995625     7.880447     7.429748    532.77697 
  788000    318.43184   -233.60476   -204.18003   -233.60476     43.09816    1877.3554            0            0   -2154.0583   -1.3764355   -4781.1101    9.1351814    7.9112939    7.4588306    539.05793 
  788500    308.19617   -233.56533   -205.08642   -233.56533    69.703642    1850.8366            0            0   -2154.1055   -1.4551758    7196.8293     8.967347     7.765945    7.3217946    509.88922 
  789000    321.44688   -229.87361   -200.17028   -229.87361    40.093061    1884.0995            0            0   -2154.0661   -1.3090437   -5852.9318    9.2893304    8.0447907    7.5846925    566.80953 
  789500    328.99458   -231.89042   -201.48964   -231.89042    53.209651    1869.1998            0            0   -2154.2999   -1.3989671   -92.138982    9.0858723     7.868591      7.41857    530.37592 
  790000    317.36236   -233.60165   -204.27575   -233.60165    52.152074    1868.3186            0            0   -2154.0723   -1.3828994   -872.67551    9.1209261    7.8989483    7.4471912    536.53828 
  790500    294.09951    -233.6245    -206.4482    -233.6245    43.627547    1876.9635            0            0   -2154.2155   -1.3422738    -4543.223    9.2120318    7.9778482    7.5215786    552.77729 
  791000    393.73726   -236.97133     -200.588   -236.97133    54.105431    1862.9491            0            0   -2154.0259   -1.4149499    531.61652    9.0515323    7.8388516    7.3905315    524.38496 
  791500    368.76359   -221.40262   -187.32698   -221.40262    49.013183    1883.3299            0            0   -2153.7457    -1.326571   -1091.4385    9.2482372     8.009203    7.5511401    559.32057 
  792000    280.27915   -227.48791   -201.58868   -227.48791    53.082024    1873.5933            0            0   -2154.1633   -1.3972296    1108.1824    9.0896369    7.8718512    7.4216438    531.03545 
  792500    324.84023   -234.20187   -204.18497   -234.20187    50.999235    1868.8119            0            0    -2154.013   -1.3682377   -1639.0228    9.1533896    7.9270626    7.4736975    542.28769 
  793000    347.24726   -236.39136   -204.30394   -236.39136    65.459372    1852.4112            0            0    -2154.262   -1.4377556    4325.6894    9.0034186    7.7971839    7.3512469    516.06717 
  793500    273.33477   -236.62474   -211.36721   -236.62474    51.233674    1866.3073            0            0   -2154.1657   -1.4104446   -1716.2812    9.0611597    7.8471892    7.3983922    526.05997 
  794000    226.82045   -234.54744   -213.58807   -234.54744    49.098191    1870.5821            0            0   -2154.2278   -1.3683118    -2718.731    9.1532243    7.9269194    7.4735626    542.25832 
  794500    287.55588   -236.59797   -210.02634   -236.59797    69.909393    1847.8868            0            0   -2154.3942   -1.4594967    7084.9711    8.9584888    7.7582737     7.314562    508.37967 
  795000    324.49444   -230.84166   -200.85672   -230.84166    39.038791    1884.3161            0            0   -2154.1965   -1.3549664   -6253.3681    9.1831769    7.9528592    7.4980187    547.59915 
  795500    299.54631   -230.86209   -203.18248   -230.86209    64.255056    1858.9753            0            0   -2154.0925   -1.4101313    4323.2864    9.0618307    7.8477703    7.3989401    526.17686 
  796000    195.34354   -217.84732   -199.79658   -217.84732    48.961987    1887.0389            0            0   -2153.8482   -1.3354138   -967.94561    9.2277789    7.9914855     7.534436     555.6169 
  796500    215.48954   -231.67335   -211.76101   -231.67335     48.45611    1874.0742            0            0   -2154.2036   -1.3631163   -2377.3366    9.1648388    7.9369779    7.4830457    544.32515 
  797000     409.7982   -228.60214    -190.7347   -228.60214    70.131712    1855.1161            0            0   -2153.8499   -1.4564736    8781.9085    8.9646827    7.7636377    7.3196193    509.43488 
  797500    197.06513   -222.45868   -204.24886   -222.45868    36.417972     1895.009            0            0   -2153.8857    -1.382152   -5845.8988    9.1225698    7.9003719    7.4485333    536.82842 
  798000    312.87965   -225.81271   -196.90103   -225.81271    45.830045    1882.1782            0            0   -2153.8209   -1.3366546   -2264.0413    9.2249226    7.9890119    7.5321038    555.10111 
  798500     352.5265   -227.25127   -194.67602   -227.25127    66.649299     1860.426            0            0   -2154.3265   -1.4297961    7019.2675    9.0200946    7.8116258    7.3648629    518.94005 
  799000    331.34984   -230.96514   -200.34672   -230.96514    60.292794    1862.8379            0            0   -2154.0958   -1.3949886    2564.7446    9.0945019    7.8760643     7.425616    531.88857 
  799500    321.88759   -230.35355    -200.6095   -230.35355    53.233887    1870.7072            0            0   -2154.2946   -1.3917853     373.4631    9.1014737    7.8821021    7.4313085    533.11275 
  800000    382.26713   -225.40509   -190.08165   -225.40509    51.577216    1876.9372            0            0   -2153.9195    -1.358638    229.19102    9.1748972    7.9456887    7.4912584    546.11931 
Loop time of 100.585 on 4 procs for 500000 steps with 48 atoms

Performance: 858.979 ns/day, 0.028 hours/ns, 4970.943 timesteps/s
98.7% CPU use with 4 MPI tasks x no OpenMP threads

MPI task timing breakdown:
Section |  min time  |  avg time  |  max time  |%varavg| %total
---------------------------------------------------------------
Pair    | 26.189     | 33.49      | 40.013     |  89.0 | 33.30
Bond    | 0.059551   | 0.06737    | 0.071772   |   1.8 |  0.07
Kspace  | 27.718     | 34.301     | 41.657     |  88.7 | 34.10
Neigh   | 0.79768    | 0.80114    | 0.80315    |   0.2 |  0.80
Comm    | 11.964     | 12.357     | 12.757     |  10.8 | 12.29
Output  | 0.39413    | 0.39537    | 0.39848    |   0.3 |  0.39
Modify  | 14.183     | 16.506     | 18.554     |  49.5 | 16.41
Other   |            | 2.667      |            |       |  2.65

Nlocal:    12 ave 14 max 10 min
Histogram: 1 0 0 0 0 2 0 0 0 1
Nghost:    1737.5 ave 1756 max 1719 min
Histogram: 1 1 0 0 0 0 0 0 1 1
Neighs:    2746.25 ave 3358 max 1920 min
Histogram: 1 0 0 0 1 0 0 0 1 1

Total # of neighbors = 10985
Ave neighs/atom = 228.854
Ave special neighs/atom = 2
Neighbor list builds = 10227
Dangerous builds = 29

unfix		1
unfix		2
unfix		3

write_data	data.final
PPPM initialization ...
  extracting TIP4P info from pair style
  using 12-bit tables for long-range coulomb (../kspace.cpp:323)
  G vector (1/distance) = 0.3414
  grid = 8 8 6
  stencil order = 5
  estimated absolute RMS force accuracy = 0.014619
  estimated relative force accuracy = 4.40248e-05
  using double precision KISS FFT
  3d grid and FFT values/proc = 1573 128
Total wall time: 0:02:43
