LAMMPS data file via write_data, version 19 Sep 2019, timestep = 500000

288 atoms
2 atom types
192 bonds
1 bond types
96 angles
1 angle types

0.0 13.288 xlo xhi
0.0 16.203 ylo yhi
0.0 14.766 zlo zhi

Masses

1 1.008
2 15.999

Atoms # full

1 1 2 -1.1794000000000000e+00 -9.7500755443582166e-02 2.2622723745366531e+00 4.2063432978036097e+00 0 0 0
2 1 1 5.8970000000000000e-01 1.5555999970989465e-01 2.9427624433125588e+00 3.5825154954246128e+00 0 0 0
3 1 1 5.8970000000000000e-01 1.8903935661958493e-01 2.5971051134468555e+00 5.0560554175975856e+00 0 0 0
13 1 2 -1.1794000000000000e+00 4.3201128938988118e+00 2.7696338550524913e+00 3.8158736901353958e+00 0 0 0
14 1 1 5.8970000000000000e-01 4.3757473814107604e+00 3.6776949124925240e+00 3.5181346260636399e+00 0 0 0
15 1 1 5.8970000000000000e-01 4.3646684524024471e+00 2.8268825216260125e+00 4.7703237629367239e+00 0 0 0
37 1 2 -1.1794000000000000e+00 2.3827385726196435e+00 6.4463233169435341e+00 4.2938754641326344e+00 0 0 0
39 1 1 5.8970000000000000e-01 2.4005738553840739e+00 6.6014978912156401e+00 5.2382607372801182e+00 0 0 0
73 1 2 -1.1794000000000000e+00 9.9192766792476128e-02 5.3524992208377373e+00 7.8354802661881990e+00 0 0 0
85 1 2 -1.1794000000000000e+00 4.3844919368822355e+00 4.9206910259024754e+00 7.7559752464982621e+00 0 0 0
86 1 1 5.8970000000000000e-01 4.3785536181236564e+00 3.9650852851332576e+00 7.7004529588193824e+00 0 0 0
109 1 2 -1.1794000000000000e+00 2.6120763204306234e+00 1.2545404731706398e+00 7.5865429553010726e+00 0 0 0
145 1 2 -1.1794000000000000e+00 2.2489346123696548e+00 8.7714063253945196e-01 3.7025502549345788e+00 0 0 0
146 1 1 5.8970000000000000e-01 2.9787421462722454e+00 1.4962702177958573e+00 3.6930600615277789e+00 0 0 0
147 1 1 5.8970000000000000e-01 1.5497794544325578e+00 1.3377095749256531e+00 4.1663348246321457e+00 0 0 0
181 1 2 -1.1794000000000000e+00 5.8941585653941408e-01 4.5719946020824258e+00 3.0275565420783890e+00 0 0 0
182 1 1 5.8970000000000000e-01 1.2736662323503918e+00 5.0779347921374773e+00 3.4656488355602448e+00 0 0 0
193 1 2 -1.1794000000000000e+00 4.5622206032870780e+00 5.8416374533464923e+00 2.6609036306888600e+00 0 0 0
195 1 1 5.8970000000000000e-01 3.8815197001663835e+00 6.1221327481334127e+00 3.2724994006730279e+00 0 0 0
217 1 2 -1.1794000000000000e+00 2.3819700108145647e+00 6.4993768539592445e+00 6.9734967355562691e+00 0 0 0
218 1 1 5.8970000000000000e-01 1.6218236290025172e+00 5.9881772534334088e+00 7.2508000061158651e+00 0 0 0
219 1 1 5.8970000000000000e-01 3.1345403167710462e+00 5.9569637054860296e+00 7.2090413529272732e+00 0 0 0
253 1 2 -1.1794000000000000e+00 3.2302122360400509e-01 2.7273706416803902e+00 6.8274567208532906e+00 0 0 0
255 1 1 5.8970000000000000e-01 1.1382954850067484e+00 2.2979229768351619e+00 7.0860987190540667e+00 0 0 0
265 1 2 -1.1794000000000000e+00 4.6364041265599925e+00 2.5108446117972143e+00 6.4715149548927338e+00 0 0 0
266 1 1 5.8970000000000000e-01 3.9559969851398495e+00 2.0062587080211833e+00 6.9170580215475983e+00 0 0 0
111 1 1 5.8970000000000000e-01 2.6659594167080640e+00 1.2085680669356818e+00 8.5411103023808508e+00 0 0 0
75 1 1 5.8970000000000000e-01 1.4620619777423194e-01 4.4357908716873347e+00 7.5638493392037134e+00 0 0 0
74 1 1 5.8970000000000000e-01 2.6917640863817449e-01 5.3327427405407057e+00 8.7772573116605557e+00 0 0 0
87 1 1 5.8970000000000000e-01 4.6083856445965141e+00 5.1067373572125589e+00 8.6678416187721332e+00 0 0 0
267 1 1 5.8970000000000000e-01 5.4406513528494438e+00 2.0144594521291359e+00 6.6225062389361939e+00 0 0 0
194 1 1 5.8970000000000000e-01 5.3789625158250391e+00 6.1495034475544044e+00 3.0535082399608058e+00 0 0 0
183 1 1 5.8970000000000000e-01 -2.2906213364614791e-01 4.9152475987956290e+00 3.3857073835206775e+00 0 0 0
254 1 1 5.8970000000000000e-01 -3.5588584357351527e-01 2.2733789903377595e+00 7.3264834194555206e+00 0 0 0
110 1 1 5.8970000000000000e-01 2.6188595033007673e+00 3.4074246639647715e-01 7.3015149150629837e+00 0 0 0
38 1 1 5.8970000000000000e-01 2.2800451846393113e+00 7.3169861028548908e+00 3.9095174215563109e+00 0 0 0
159 1 1 5.8970000000000000e-01 5.5540014226960892e+00 1.8029879779419380e+00 3.3798889825790139e+00 0 0 0
114 1 1 5.8970000000000000e-01 1.8083568978188569e+00 1.4680030696830488e+00 2.0734817528876519e+00 0 0 1
278 1 1 5.8970000000000000e-01 8.6474359455202645e+00 2.1000435457411069e+00 7.1679786966105805e+00 0 0 0
230 1 1 5.8970000000000000e-01 5.6773981307935761e+00 5.8202329438017548e+00 6.8149551362268772e+00 0 0 0
243 1 1 5.8970000000000000e-01 1.1683554422578146e+01 5.5349240987870125e+00 7.0431269202079241e+00 0 0 0
61 1 2 -1.1794000000000000e+00 1.1356173759913812e+01 6.0204966957553037e+00 3.9192061947625145e+00 0 0 0
50 1 1 5.8970000000000000e-01 7.3991907613148964e+00 7.0638892667372026e+00 3.7510554901428694e+00 0 0 0
170 1 1 5.8970000000000000e-01 1.1636135614148422e+01 1.4022704637721468e+00 3.4800308994760334e+00 0 0 0
62 1 1 5.8970000000000000e-01 1.1233123306218260e+01 6.9265072693710579e+00 3.6358377651887439e+00 0 0 0
158 1 1 5.8970000000000000e-01 7.0625817272038862e+00 1.7184794926446956e+00 3.2905047882042893e+00 0 0 0
134 1 1 5.8970000000000000e-01 1.1299366668353036e+01 6.1950672781646143e-01 7.6121977246878423e+00 0 0 0
99 1 1 5.8970000000000000e-01 8.7472899251740568e+00 5.2743033434711792e+00 8.8425227988527304e+00 0 0 0
122 1 1 5.8970000000000000e-01 6.9999031852972760e+00 4.2494741674498948e-01 7.1952677623516266e+00 0 0 0
206 1 1 5.8970000000000000e-01 1.0004491530582982e+01 4.8733579419091928e+00 3.0228618831782303e+00 0 0 0
171 1 1 5.8970000000000000e-01 1.0123798091509082e+01 1.3733182301013980e+00 3.4249827593251276e+00 0 0 0
135 1 1 5.8970000000000000e-01 1.1236638594371698e+01 1.3843376553273610e+00 8.9172140732270826e+00 0 0 0
242 1 1 5.8970000000000000e-01 1.0214194426242795e+01 5.8959855932014813e+00 7.0829814943876590e+00 0 0 0
123 1 1 5.8970000000000000e-01 6.7612995565931451e+00 1.2460018008715206e+00 8.4445749526139444e+00 0 0 0
121 1 2 -1.1794000000000000e+00 6.8654560550055672e+00 1.3236127771771322e+00 7.4962246449736440e+00 0 0 0
49 1 2 -1.1794000000000000e+00 7.0867939058776184e+00 6.1916843634247520e+00 3.9917479563779872e+00 0 0 0
229 1 2 -1.1794000000000000e+00 6.4946413240190637e+00 6.2965336299331298e+00 6.6691514955827591e+00 0 0 0
133 1 2 -1.1794000000000000e+00 1.1488105698379085e+01 1.4749386601215431e+00 7.9981009654012842e+00 0 0 0
279 1 1 5.8970000000000000e-01 1.0113330176575859e+01 2.4453780652279837e+00 7.3195881757622470e+00 0 0 0
207 1 1 5.8970000000000000e-01 8.5721251332903083e+00 5.2035652130548726e+00 3.3840118175947427e+00 0 0 0
277 1 2 -1.1794000000000000e+00 9.3010628424641677e+00 2.7528691673096732e+00 6.9175228013664549e+00 0 0 0
63 1 1 5.8970000000000000e-01 1.1152943465069059e+01 6.0318602978368832e+00 4.8545187862443235e+00 0 0 0
97 1 2 -1.1794000000000000e+00 8.6037901109961403e+00 5.3866335853251863e+00 7.9028192084792002e+00 0 0 0
241 1 2 -1.1794000000000000e+00 1.1005648214629677e+01 6.0026212481740711e+00 6.5555255583746703e+00 0 0 0
51 1 1 5.8970000000000000e-01 7.1279356741120328e+00 6.1774488961546501e+00 4.9479697747169844e+00 0 0 0
205 1 2 -1.1794000000000000e+00 9.1001353323086747e+00 4.6187322473159362e+00 2.8405432101172678e+00 0 0 0
25 1 2 -1.1794000000000000e+00 8.6590716458000969e+00 2.3287557458505352e+00 4.0770171216099360e+00 0 0 0
169 1 2 -1.1794000000000000e+00 1.0901463608074742e+01 9.1114436285408629e-01 3.1125091718767122e+00 0 0 0
26 1 1 5.8970000000000000e-01 8.7763165107018573e+00 3.1852151476854837e+00 3.6658386446088764e+00 0 0 0
157 1 2 -1.1794000000000000e+00 6.2613848911491363e+00 1.2921871377070153e+00 2.9865663255375630e+00 0 0 0
27 1 1 5.8970000000000000e-01 8.9643505985134322e+00 2.4503529576944407e+00 4.9760363729817314e+00 0 0 0
98 1 1 5.8970000000000000e-01 8.7115836257282790e+00 4.5086542075511762e+00 7.5369472747801014e+00 0 0 0
231 1 1 5.8970000000000000e-01 7.1018126931417811e+00 5.9340521687629062e+00 7.3141484639359486e+00 0 0 0
4 1 2 -1.1794000000000000e+00 1.7951502237050154e-01 2.4241339987159951e+00 1.1420434667263702e+01 0 0 0
5 1 1 5.8970000000000000e-01 2.7732752735110133e-01 3.3384399176549713e+00 1.1154350309517895e+01 0 0 0
6 1 1 5.8970000000000000e-01 2.1450843833160915e-01 2.4474144931839854e+00 1.2376702428221741e+01 0 0 0
16 1 2 -1.1794000000000000e+00 3.9153363270814046e+00 2.7115143160871966e+00 1.1782957500516023e+01 0 0 0
17 1 1 5.8970000000000000e-01 4.1039067523461199e+00 3.6163498070028997e+00 1.1533862238014429e+01 0 0 0
18 1 1 5.8970000000000000e-01 3.7454462618448776e+00 2.7521474967749970e+00 1.2724090013333203e+01 0 0 0
40 1 2 -1.1794000000000000e+00 2.4267190904598754e+00 6.4687115893568476e+00 1.1406730061402246e+01 0 0 0
42 1 1 5.8970000000000000e-01 2.1871366798175269e+00 6.4994228938680969e+00 1.2332944377175529e+01 0 0 0
76 1 2 -1.1794000000000000e+00 -2.5545787716085511e-02 5.2813528673584251e+00 1.5357378274403459e+01 0 0 0
77 1 1 5.8970000000000000e-01 -7.4982567668449462e-02 4.5048927654572193e+00 1.4799716115214956e+01 0 0 0
88 1 2 -1.1794000000000000e+00 4.2614460682927993e+00 5.5358590574785449e+00 1.4942001334947346e+01 0 0 0
89 1 1 5.8970000000000000e-01 4.1959731012567421e+00 4.5865930942732867e+00 1.4837285242686765e+01 0 0 0
112 1 2 -1.1794000000000000e+00 1.7653904733024306e+00 1.6462463455904395e+00 1.6036089167138829e+01 0 0 0
148 1 2 -1.1794000000000000e+00 2.1233253183653042e+00 9.5178125845754691e-01 1.0236306650836461e+01 0 0 0
149 1 1 5.8970000000000000e-01 2.8310507152151918e+00 1.3580638417967199e+00 1.0736388665214459e+01 0 0 0
150 1 1 5.8970000000000000e-01 1.3281732517921401e+00 1.3765926778316864e+00 1.0557548078178733e+01 0 0 0
184 1 2 -1.1794000000000000e+00 4.5043277111611868e-01 4.9294632934341989e+00 1.0556238551683116e+01 0 0 0
185 1 1 5.8970000000000000e-01 1.2487520721515479e+00 5.3670997671672662e+00 1.0851479377153680e+01 0 0 0
198 1 1 5.8970000000000000e-01 3.9894241757250324e+00 5.5382905685524575e+00 1.0918064301888471e+01 0 0 0
220 1 2 -1.1794000000000000e+00 1.9141705580217976e+00 6.6920061971791389e+00 1.4192456505754038e+01 0 0 0
221 1 1 5.8970000000000000e-01 1.2842088546073276e+00 6.2327191437919964e+00 1.4747702395252006e+01 0 0 0
222 1 1 5.8970000000000000e-01 2.7344782305428286e+00 6.2143564575011814e+00 1.4314721811991998e+01 0 0 0
256 1 2 -1.1794000000000000e+00 -1.4407479658713152e-01 2.7339100709617168e+00 1.4154748429577158e+01 0 0 0
258 1 1 5.8970000000000000e-01 4.7687679252635462e-01 2.3478943981371110e+00 1.4772422164633582e+01 0 0 0
268 1 2 -1.1794000000000000e+00 3.8394899695042035e+00 2.7535987892233824e+00 1.4709143011480204e+01 0 0 0
269 1 1 5.8970000000000000e-01 3.0630415128945225e+00 2.3395814463392393e+00 1.5085625209589903e+01 0 0 0
90 1 1 5.8970000000000000e-01 4.3803278324778061e+00 5.6658887702141678e+00 1.5882855293559452e+01 0 0 0
196 1 2 -1.1794000000000000e+00 4.6714512877931247e+00 5.0679149497563518e+00 1.0438869773630781e+01 0 0 0
78 1 1 5.8970000000000000e-01 3.2314190377519703e-01 4.9582625397875928e+00 1.6188186828371631e+01 0 0 0
270 1 1 5.8970000000000000e-01 4.5199682804062986e+00 2.0828468087042671e+00 1.4765390721223504e+01 0 0 0
197 1 1 5.8970000000000000e-01 5.4887773961882464e+00 5.3409221215523344e+00 1.0855305891572563e+01 0 0 0
41 1 1 5.8970000000000000e-01 2.2063126327888387e+00 7.3383387739118797e+00 1.1072849047155110e+01 0 0 0
113 1 1 5.8970000000000000e-01 1.7336912332982721e+00 7.8054192030061031e-01 1.5628787633621226e+01 0 0 0
186 1 1 5.8970000000000000e-01 -2.5659236694701482e-01 5.3902016375485662e+00 1.1007810630903002e+01 0 0 0
162 1 1 5.8970000000000000e-01 5.3201181865076643e+00 1.8677200353260375e+00 1.0856763018362738e+01 0 0 0
59 1 1 5.8970000000000000e-01 6.2785359437159904e+00 -8.6633205482016251e-02 1.1174924944296933e+01 0 1 0
257 1 1 5.8970000000000000e-01 1.2197490839047484e+01 2.4209162238534137e+00 1.4447793322214679e+01 -1 0 0
246 1 1 5.8970000000000000e-01 1.1887197754518747e+01 6.3035324811489657e+00 1.4797522857575114e+01 0 0 0
53 1 1 5.8970000000000000e-01 6.6540966120755023e+00 7.4973757737190283e+00 1.0814483733299866e+01 0 0 0
209 1 1 5.8970000000000000e-01 9.8209638444513381e+00 5.5339351264565746e+00 1.0970189039417370e+01 0 0 0
173 1 1 5.8970000000000000e-01 1.1437679331805121e+01 1.6564890332915876e+00 1.0896007038420521e+01 0 0 0
137 1 1 5.8970000000000000e-01 1.0601231391575652e+01 6.6007535530769834e-01 1.4756494525083802e+01 0 0 0
233 1 1 5.8970000000000000e-01 5.9328643013882099e+00 6.1927359100788859e+00 1.4360423126514004e+01 0 0 0
64 1 2 -1.1794000000000000e+00 1.1420281273907003e+01 6.3195713197837753e+00 1.1792644592154584e+01 0 0 0
102 1 1 5.8970000000000000e-01 8.9734752949420731e+00 4.8894893684666147e+00 1.6113840135416247e+01 0 0 0
65 1 1 5.8970000000000000e-01 1.1693789176228263e+01 7.2111478175517814e+00 1.1576778234941848e+01 0 0 0
161 1 1 5.8970000000000000e-01 6.8184392069059223e+00 2.0653993079269508e+00 1.0773228252543277e+01 0 0 0
29 1 1 5.8970000000000000e-01 8.7786237024441967e+00 3.5091298369431763e+00 1.1241880060021259e+01 0 0 0
282 1 1 5.8970000000000000e-01 8.9360589045941570e+00 2.3390901811603433e+00 1.4597472066317341e+01 0 0 0
136 1 2 -1.1794000000000000e+00 1.0551319100720562e+01 1.5083490128736072e+00 1.5197235551888419e+01 0 0 0
160 1 2 -1.1794000000000000e+00 6.1278067053906220e+00 1.4282070732759078e+00 1.0591281035133072e+01 0 0 0
66 1 1 5.8970000000000000e-01 1.1197709376826349e+01 6.3554605818662990e+00 1.2722917071461389e+01 0 0 0
125 1 1 5.8970000000000000e-01 6.3940693629576186e+00 1.9515991888286566e-01 1.4969427135062265e+01 0 0 0
172 1 2 -1.1794000000000000e+00 1.0759865506772398e+01 1.0533803929785801e+00 1.0591136973527419e+01 0 0 0
124 1 2 -1.1794000000000000e+00 5.9071526861672252e+00 9.8833772214504090e-01 1.5193063650388837e+01 0 0 0
28 1 2 -1.1794000000000000e+00 8.5435739611282990e+00 2.5947674557765725e+00 1.1400071132132968e+01 0 0 0
281 1 1 5.8970000000000000e-01 7.4721392746192983e+00 1.9715385544595652e+00 1.4710556700654340e+01 0 0 0
52 1 2 -1.1794000000000000e+00 6.6437518669229227e+00 6.7262154107502123e+00 1.1381480889961612e+01 0 0 0
138 1 1 5.8970000000000000e-01 1.0519678768479375e+01 1.2929638374157291e+00 1.6129367502286446e+01 0 0 0
232 1 2 -1.1794000000000000e+00 6.7138161104730960e+00 6.7291285504651830e+00 1.4224769205874672e+01 0 0 0
174 1 1 5.8970000000000000e-01 9.9378810733807068e+00 1.5187264317941960e+00 1.0745411040052055e+01 0 0 0
245 1 1 5.8970000000000000e-01 1.0379983888349662e+01 6.2643074871077404e+00 1.4664118882475968e+01 0 0 0
280 1 2 -1.1794000000000000e+00 8.0814046786854874e+00 2.5044563254954082e+00 1.4199790347501882e+01 0 0 0
30 1 1 5.8970000000000000e-01 8.1870154614450730e+00 2.5889057748254887e+00 1.2288336537633693e+01 0 0 0
234 1 1 5.8970000000000000e-01 7.4193086046514480e+00 6.2354918891623194e+00 1.4642683371998423e+01 0 0 0
244 1 2 -1.1794000000000000e+00 1.1150248008910083e+01 6.7674897735766590e+00 1.4400400238425135e+01 0 0 0
100 1 2 -1.1794000000000000e+00 8.9379796751842218e+00 4.9009360660149506e+00 1.5157354191643421e+01 0 0 0
208 1 2 -1.1794000000000000e+00 9.0006359211043474e+00 5.1379079673898680e+00 1.0676618108356116e+01 0 0 0
54 1 1 5.8970000000000000e-01 6.2533971901789664e+00 7.0348171606655789e+00 1.2199146368238051e+01 0 0 0
101 1 1 5.8970000000000000e-01 8.4824676966206738e+00 4.0919285358560007e+00 1.4924408091704318e+01 0 0 0
210 1 1 5.8970000000000000e-01 8.3354691345914969e+00 5.8018029283793258e+00 1.0858079160411069e+01 0 0 0
126 1 1 5.8970000000000000e-01 5.7532189915762615e+00 9.1779021871226529e-01 1.6135172561215960e+01 0 0 0
7 1 2 -1.1794000000000000e+00 3.6159866064445523e-01 1.0108455526604686e+01 3.9523072364091787e+00 0 0 0
8 1 1 5.8970000000000000e-01 1.7657766030291189e-01 1.0993065685231198e+01 3.6367829064242558e+00 0 0 0
9 1 1 5.8970000000000000e-01 1.6817437507681676e-01 1.0142457176538677e+01 4.8891470614443913e+00 0 0 0
19 1 2 -1.1794000000000000e+00 5.2406922777536442e+00 1.0240266236937991e+01 4.1324650460803838e+00 0 0 0
20 1 1 5.8970000000000000e-01 5.0411729982598876e+00 1.1020675466888608e+01 3.6153028374154590e+00 0 0 0
21 1 1 5.8970000000000000e-01 5.1112002960830401e+00 1.0514441623599421e+01 5.0403488890967605e+00 0 0 0
43 1 2 -1.1794000000000000e+00 2.7367455495562192e+00 1.3900897702318968e+01 4.3225711467263359e+00 0 0 0
45 1 1 5.8970000000000000e-01 2.7690221860105559e+00 1.3848960365302531e+01 5.2778260666969512e+00 0 0 0
79 1 2 -1.1794000000000000e+00 4.3297912656719562e-01 1.3104256482682203e+01 7.4998907872037286e+00 0 0 0
80 1 1 5.8970000000000000e-01 3.6759532662195826e-01 1.2188693164330381e+01 7.2282104630744781e+00 0 0 0
91 1 2 -1.1794000000000000e+00 5.1020643137140000e+00 1.2929452412256673e+01 7.9300838084337730e+00 0 0 0
92 1 1 5.8970000000000000e-01 4.8537085618426978e+00 1.2033691022338964e+01 7.7014829755896566e+00 0 0 0
115 1 2 -1.1794000000000000e+00 2.4105701612326338e+00 9.1849803518786928e+00 7.4103534614149176e+00 0 0 0
151 1 2 -1.1794000000000000e+00 2.8494582754962505e+00 9.0248335142073195e+00 3.0825627221435532e+00 0 0 0
152 1 1 5.8970000000000000e-01 3.6100474546287780e+00 9.5411643636611885e+00 3.3489499844891535e+00 0 0 0
153 1 1 5.8970000000000000e-01 2.0968255060022871e+00 9.5645977959064155e+00 3.3239141092369091e+00 0 0 0
188 1 1 5.8970000000000000e-01 9.0590233285621702e-01 1.3091150533676625e+01 3.8082658309789030e+00 0 0 0
199 1 2 -1.1794000000000000e+00 4.5477447780382381e+00 1.2684402000411882e+01 2.8790958946134166e+00 0 0 0
201 1 1 5.8970000000000000e-01 3.8364296124222683e+00 1.3091141982271100e+01 3.3737243758368143e+00 0 0 0
223 1 2 -1.1794000000000000e+00 2.8450195930648858e+00 1.4223416456781084e+01 6.9808003655919224e+00 0 0 0
224 1 1 5.8970000000000000e-01 2.0622712093749724e+00 1.3718075313907253e+01 7.1998278777461397e+00 0 0 0
225 1 1 5.8970000000000000e-01 3.5737655863818354e+00 1.3672057887459253e+01 7.2654302111535660e+00 0 0 0
259 1 2 -1.1794000000000000e+00 -4.5234146392106100e-02 1.0358767318399071e+01 6.7527208600926798e+00 0 0 0
261 1 1 5.8970000000000000e-01 7.6428986408890953e-01 9.9380765567935967e+00 7.0419755193630698e+00 0 0 0
271 1 2 -1.1794000000000000e+00 4.6759517797985550e+00 1.0602908170415180e+01 6.9685201730788409e+00 0 0 0
272 1 1 5.8970000000000000e-01 3.9226830155728658e+00 1.0032434305142726e+01 7.1205342476040112e+00 0 0 0
187 1 2 -1.1794000000000000e+00 1.3520306911471436e-01 1.2782246669191906e+01 3.3322214190968911e+00 0 0 0
117 1 1 5.8970000000000000e-01 2.6086692639742504e+00 9.0627242874011422e+00 8.3388005157687886e+00 0 0 0
81 1 1 5.8970000000000000e-01 3.5289898608379611e-01 1.3077970304807941e+01 8.4533695127105855e+00 0 0 0
273 1 1 5.8970000000000000e-01 5.4361817066019400e+00 1.0042145105240159e+01 7.1221916111524832e+00 0 0 0
93 1 1 5.8970000000000000e-01 4.9302887488091045e+00 1.2993804756646938e+01 8.8695515313520268e+00 0 0 0
200 1 1 5.8970000000000000e-01 5.2854740293950693e+00 1.3285468114929731e+01 2.9817728141307036e+00 0 0 0
44 1 1 5.8970000000000000e-01 2.6820741611582903e+00 1.4837980522395434e+01 4.1348944864863917e+00 0 0 0
116 1 1 5.8970000000000000e-01 2.3593219271554773e+00 8.2968524634034075e+00 7.0569431208228011e+00 0 0 0
189 1 1 5.8970000000000000e-01 -6.0688722723457478e-01 1.3138908540118734e+01 3.8201752234476936e+00 0 0 0
260 1 1 5.8970000000000000e-01 -7.0449025379645480e-01 1.0069072219117388e+01 7.3831900449394645e+00 0 0 0
249 1 1 5.8970000000000000e-01 -7.7192932103167244e-01 1.4306973280064543e+01 6.9209503457554655e+00 1 0 0
176 1 1 5.8970000000000000e-01 -9.1810300630167063e-01 9.3108439953978532e+00 3.3259731116793287e+00 1 0 0
57 1 1 5.8970000000000000e-01 6.6010880203596463e+00 1.4261488581529214e+01 4.8293990800217736e+00 0 0 0
32 1 1 5.8970000000000000e-01 9.3476665173476228e+00 1.0997543369725744e+01 3.6963611159071359e+00 0 0 0
68 1 1 5.8970000000000000e-01 1.1190686044304456e+01 1.4889929173467394e+01 4.0718954095245792e+00 0 0 0
236 1 1 5.8970000000000000e-01 6.4186546083148910e+00 1.3859360987838450e+01 7.1139322516151111e+00 0 0 0
139 1 2 -1.1794000000000000e+00 1.1237200337815073e+01 8.7547201119615643e+00 8.0375514841410158e+00 0 0 0
128 1 1 5.8970000000000000e-01 7.0167989965504596e+00 7.9952001756791136e+00 7.0533297619073192e+00 0 0 0
141 1 1 5.8970000000000000e-01 1.1488708231017252e+01 8.7187801154854654e+00 8.9604107852516428e+00 0 0 0
283 1 2 -1.1794000000000000e+00 9.1838472096163937e+00 1.0409201001102435e+01 6.8949465082954022e+00 0 0 0
165 1 1 5.8970000000000000e-01 6.4140761669963107e+00 9.1109262100156485e+00 3.4984857294444875e+00 0 0 0
164 1 1 5.8970000000000000e-01 7.9193481730669610e+00 8.9983430429057805e+00 3.6103639440590145e+00 0 0 0
140 1 1 5.8970000000000000e-01 1.1396677495062510e+01 7.8692751390563540e+00 7.7106600251091093e+00 0 0 0
127 1 2 -1.1794000000000000e+00 6.9551723973356161e+00 8.9333654339233313e+00 7.2332574301391226e+00 0 0 0
247 1 2 -1.1794000000000000e+00 1.1527207464986928e+01 1.4631443318579763e+01 6.9848451266102911e+00 0 0 0
69 1 1 5.8970000000000000e-01 1.1169651695619551e+01 1.4117034486382728e+01 5.3735048457372461e+00 0 0 0
105 1 1 5.8970000000000000e-01 8.8462180982611880e+00 1.3008318487445521e+01 8.8682153957515659e+00 0 0 0
248 1 1 5.8970000000000000e-01 1.1086336784560794e+01 1.4005472591112092e+01 7.5592932610930212e+00 0 0 0
129 1 1 5.8970000000000000e-01 6.8604515926638436e+00 8.9896660282184406e+00 8.1841038789345539e+00 0 0 0
175 1 2 -1.1794000000000000e+00 1.1520013596139199e+01 8.8030766419203808e+00 3.0396216645835037e+00 0 0 0
284 1 1 5.8970000000000000e-01 8.4230472208861542e+00 9.8285472024541036e+00 6.8972416486747630e+00 0 0 0
285 1 1 5.8970000000000000e-01 9.8539840216110228e+00 9.9282797496254993e+00 7.3804416097237917e+00 0 0 0
104 1 1 5.8970000000000000e-01 9.3266093357722930e+00 1.2122915966194935e+01 7.7380684188442190e+00 0 0 0
31 1 2 -1.1794000000000000e+00 9.4911768223320667e+00 1.0182063854681413e+01 4.1766423846330074e+00 0 0 0
212 1 1 5.8970000000000000e-01 9.4698112669504404e+00 1.3397734538809527e+01 3.4451510837211190e+00 0 0 0
103 1 2 -1.1794000000000000e+00 9.2516403245884646e+00 1.3040094472399755e+01 8.0017272207089718e+00 0 0 0
163 1 2 -1.1794000000000000e+00 7.1734628871369583e+00 8.6895403512510896e+00 3.0962279519338649e+00 0 0 0
213 1 1 5.8970000000000000e-01 7.9689230085384537e+00 1.3210535429532111e+01 3.5017528970324205e+00 0 0 0
237 1 1 5.8970000000000000e-01 7.8708260289865422e+00 1.3893778163864226e+01 6.6885306110481384e+00 0 0 0
235 1 2 -1.1794000000000000e+00 7.0699677162992085e+00 1.4417773612999380e+01 6.6895990244579204e+00 0 0 0
67 1 2 -1.1794000000000000e+00 1.1106209836362542e+01 1.4004233473289499e+01 4.4250840478374647e+00 0 0 0
33 1 1 5.8970000000000000e-01 9.4950097559509512e+00 1.0443424766019593e+01 5.0974759522633581e+00 0 0 0
177 1 1 5.8970000000000000e-01 1.0767042297574601e+01 9.2806826809455139e+00 3.3874363770483358e+00 0 0 0
55 1 2 -1.1794000000000000e+00 6.5007190740191794e+00 1.4381525564860947e+01 3.8850861546693620e+00 0 0 0
211 1 2 -1.1794000000000000e+00 8.7707498112647428e+00 1.2801831731988639e+01 3.1762422490772533e+00 0 0 0
56 1 1 5.8970000000000000e-01 6.6642833952373763e+00 1.5313886498526461e+01 3.7429082933554483e+00 0 0 0
10 1 2 -1.1794000000000000e+00 7.2100426991520394e-01 1.0593588802905380e+01 1.1850145685611608e+01 0 0 0
11 1 1 5.8970000000000000e-01 8.1566136745040829e-01 1.0791505871845633e+01 1.2781864848086439e+01 0 0 0
12 1 1 5.8970000000000000e-01 3.2134447554839940e-01 1.1379405255711504e+01 1.1477323413528556e+01 0 0 0
22 1 2 -1.1794000000000000e+00 4.6464860187008794e+00 1.0334453856139433e+01 1.1439011789736949e+01 0 0 0
23 1 1 5.8970000000000000e-01 4.3404008381852250e+00 1.1193066861496483e+01 1.1146800866913257e+01 0 0 0
24 1 1 5.8970000000000000e-01 4.7495731553409692e+00 1.0426051332244789e+01 1.2386231287510920e+01 0 0 0
46 1 2 -1.1794000000000000e+00 1.7499756357293994e+00 1.4542282177215064e+01 1.1686130968166498e+01 0 0 0
48 1 1 5.8970000000000000e-01 1.8193421685799089e+00 1.4714736010332082e+01 1.2625121404266263e+01 0 0 0
82 1 2 -1.1794000000000000e+00 -2.4593091357708963e-01 1.3580732967757069e+01 1.5587780844745669e+01 0 0 0
83 1 1 5.8970000000000000e-01 -2.2785081646451344e-01 1.2823983873768888e+01 1.5001853708692153e+01 0 0 0
94 1 2 -1.1794000000000000e+00 4.1583468876201941e+00 1.3171596821284147e+01 1.5117293784634903e+01 0 0 0
95 1 1 5.8970000000000000e-01 4.2443446996190763e+00 1.2339624595337458e+01 1.4651735372435407e+01 0 0 0
118 1 2 -1.1794000000000000e+00 2.5411593901492928e+00 9.1490022637634745e+00 1.5276138862317723e+01 0 0 0
154 1 2 -1.1794000000000000e+00 2.4733460139256636e+00 9.1816582179300887e+00 1.0324787618310644e+01 0 0 0
155 1 1 5.8970000000000000e-01 3.2639610432910988e+00 9.5630488386919730e+00 1.0706184697467521e+01 0 0 0
156 1 1 5.8970000000000000e-01 1.7535072219289192e+00 9.6525426059610453e+00 1.0744402552292154e+01 0 0 0
191 1 1 5.8970000000000000e-01 4.0527968954829019e-01 1.3561162191139836e+01 1.0779257465760676e+01 0 0 0
202 1 2 -1.1794000000000000e+00 4.0651275670112961e+00 1.3062289244599445e+01 1.0758193264436091e+01 0 0 0
204 1 1 5.8970000000000000e-01 3.3043698373394221e+00 1.3641529006237253e+01 1.0800517426563225e+01 0 0 0
226 1 2 -1.1794000000000000e+00 1.9455910620743366e+00 1.4893039057835171e+01 1.4493288765268016e+01 0 0 0
227 1 1 5.8970000000000000e-01 1.1719810755673317e+00 1.4569692719209904e+01 1.4954796971906440e+01 0 0 0
228 1 1 5.8970000000000000e-01 2.6583272653463421e+00 1.4331084393661687e+01 1.4797088492472415e+01 0 0 0
262 1 2 -1.1794000000000000e+00 3.7251662826235354e-01 1.0973346557051755e+01 1.4527921326314182e+01 0 0 0
264 1 1 5.8970000000000000e-01 1.1543090440518280e+00 1.0583529869389452e+01 1.4918901793449763e+01 0 0 0
274 1 2 -1.1794000000000000e+00 4.5355738779414541e+00 1.0651528185132385e+01 1.4191509921673102e+01 0 0 0
275 1 1 5.8970000000000000e-01 3.7552616026827232e+00 1.0190826012087697e+01 1.4499552780930724e+01 0 0 0
84 1 1 5.8970000000000000e-01 1.9638271028720400e-02 1.3231835382407652e+01 1.6438625637110896e+01 0 0 0
96 1 1 5.8970000000000000e-01 4.2679199050012597e+00 1.2942568642828391e+01 1.6040218394274177e+01 0 0 0
190 1 2 -1.1794000000000000e+00 -1.1040033522216586e-01 1.2835779175119210e+01 1.0426980459140879e+01 0 0 0
120 1 1 5.8970000000000000e-01 2.8446028588276646e+00 8.9282709032969834e+00 1.6156699273486382e+01 0 0 0
192 1 1 5.8970000000000000e-01 -9.4937660377785815e-01 1.2893903675444928e+01 1.0883822293404013e+01 0 0 0
119 1 1 5.8970000000000000e-01 2.3622647305107338e+00 8.3032957752371850e+00 1.4864977439630177e+01 0 0 0
263 1 1 5.8970000000000000e-01 -3.1850058110214241e-01 1.0328794515069614e+01 1.4680100427450572e+01 0 0 0
276 1 1 5.8970000000000000e-01 5.2661330079165625e+00 1.0102885623906953e+01 1.4476684335146491e+01 0 0 0
47 1 1 5.8970000000000000e-01 1.7503994813444383e+00 1.5410078058973546e+01 1.1282088395629870e+01 0 0 0
203 1 1 5.8970000000000000e-01 4.7552889315621707e+00 1.3538862379371995e+01 1.1219312684234986e+01 0 0 0
179 1 1 5.8970000000000000e-01 -7.7186607594280732e-01 9.2102664378729848e+00 1.1260668269119552e+01 1 0 0
168 1 1 5.8970000000000000e-01 6.2525905356168083e+00 9.5935204984363303e+00 1.0663089798568990e+01 0 0 0
131 1 1 5.8970000000000000e-01 6.6762535888124654e+00 8.3462080964476648e+00 1.4678651382157831e+01 0 0 0
108 1 1 5.8970000000000000e-01 8.4376976272996291e+00 1.3029939894082109e+01 1.6182719506518460e+01 0 0 0
130 1 2 -1.1794000000000000e+00 6.6934967035252022e+00 9.1841205998853219e+00 1.5141154488061222e+01 0 0 0
252 1 1 5.8970000000000000e-01 1.1575515042260260e+01 1.4656119584113636e+01 1.4846061310889827e+01 0 0 0
239 1 1 5.8970000000000000e-01 5.7419695521344645e+00 1.3982025872989638e+01 1.4627893551712400e+01 0 0 0
36 1 1 5.8970000000000000e-01 8.8208758056122090e+00 1.0099394135260415e+01 1.2178722933510745e+01 0 0 0
71 1 1 5.8970000000000000e-01 1.0748731374469100e+01 1.4706314374407821e+01 1.1011025123592585e+01 0 0 0
286 1 2 -1.1794000000000000e+00 9.2224160659899486e+00 1.0729110092363523e+01 1.4095288535773427e+01 0 0 0
143 1 1 5.8970000000000000e-01 1.1126632569388038e+01 8.6587710681973107e+00 1.4973509068987042e+01 0 0 0
58 1 2 -1.1794000000000000e+00 6.3083073024222900e+00 1.4754643750573042e+01 1.1421830748320939e+01 0 0 0
72 1 1 5.8970000000000000e-01 1.0614043394508416e+01 1.4093392726881543e+01 1.2388740257829820e+01 0 0 0
288 1 1 5.8970000000000000e-01 9.9819200543046822e+00 1.0315043409657690e+01 1.4504699407060908e+01 0 0 0
287 1 1 5.8970000000000000e-01 8.4824747515935464e+00 1.0178169743946036e+01 1.4350290311001359e+01 0 0 0
238 1 2 -1.1794000000000000e+00 6.4635884649235660e+00 1.4372567823122949e+01 1.4135135668905701e+01 0 0 0
251 1 1 5.8970000000000000e-01 1.0169290470373314e+01 1.4131229891842981e+01 1.4651128656519234e+01 0 0 0
35 1 1 5.8970000000000000e-01 8.7335037886630058e+00 1.0988785026909124e+01 1.0956698793903115e+01 0 0 0
106 1 2 -1.1794000000000000e+00 8.7222248984505271e+00 1.3320660745909240e+01 1.5316258153042412e+01 0 0 0
70 1 2 -1.1794000000000000e+00 1.0705762038864762e+01 1.3864114047083369e+01 1.1463951436638670e+01 0 0 0
250 1 2 -1.1794000000000000e+00 1.0776953182204354e+01 1.4801618286231808e+01 1.4339024451740539e+01 0 0 0
167 1 1 5.8970000000000000e-01 7.7107486508361092e+00 9.3500389426506594e+00 1.0338238641953389e+01 0 0 0
216 1 1 5.8970000000000000e-01 7.6770106766565647e+00 1.3434948903798475e+01 1.0789419351313843e+01 0 0 0
60 1 1 5.8970000000000000e-01 6.4668484335541869e+00 1.4763359177460021e+01 1.2365764061877492e+01 0 0 0
178 1 2 -1.1794000000000000e+00 1.1715198383391686e+01 8.7599138094466475e+00 1.0803596085847939e+01 0 0 0
180 1 1 5.8970000000000000e-01 1.0916492207065247e+01 9.1522645676372782e+00 1.1155929276393380e+01 0 0 0
166 1 2 -1.1794000000000000e+00 6.8249892972904957e+00 9.1677309381747669e+00 1.0025000340204244e+01 0 0 0