LAMMPS (19 Sep 2019)
echo both

include		in.temp
variable	temperature equal 300.0

variable	tempDamp equal 100.0
include		in.pressure
variable        pressure equal 1.
variable        pressureDamp equal 1000.0 # This is 1 ps
include		in.seed
variable	seed equal 745821
units		real
atom_style	full
include		in.box
read_data       ice.data
  orthogonal box = (-1.11969 1.5e-05 2.15224) to (12.3503 15.5616 16.8239)
  1 by 2 by 2 MPI processor grid
  reading atoms ...
  288 atoms
  scanning bonds ...
  2 = max bonds/atom
  scanning angles ...
  1 = max angles/atom
  reading bonds ...
  192 bonds
  reading angles ...
  96 angles
  2 = max # of 1-2 neighbors
  1 = max # of 1-3 neighbors
  1 = max # of 1-4 neighbors
  2 = max # of special neighbors
  special bonds CPU = 5.7213e-05 secs
  read_data CPU = 0.000721357 secs
include 	in.setup
variable	out_freq equal 500
variable	out_freq2 equal 500

timestep	2.0

neigh_modify    delay 10 every 1

include		in.tip4p
# This is TIP4P/Ice

# create groups ###
group ox type 2
96 atoms in group ox
group hy type 1
192 atoms in group hy

# set charges - beside manually ###
set group ox charge -1.1794
  96 settings made for charge
set group hy charge 0.5897
  192 settings made for charge

# ### TIP3P Potential Parameters ###
pair_style lj/cut/tip4p/long 2 1 1 1 0.1577 8.5
pair_coeff 1 1*2 0.000 0.000
pair_coeff 2 2 0.21084 3.1668
bond_style  harmonic
bond_coeff  1 450 0.9572
angle_style harmonic
angle_coeff 1 55 104.52
kspace_style pppm/tip4p 1.0e-4 #final npt relaxation
pair_modify tail yes

thermo          ${out_freq}
thermo          500
thermo_style 	custom step temp pe etotal epair evdwl ecoul ebond eangle elong etail press lx ly lz vol

restart 	${out_freq} restart.lmp restart2.lmp
restart 	500 restart.lmp restart2.lmp

include 	in.dump
dump            myDump all atom ${out_freq2} dump.water
dump            myDump all atom 500 dump.water
dump            myDump2 all dcd ${out_freq2} dump.dcd
dump            myDump2 all dcd 500 dump.dcd

fix 		1 all shake 1e-6 200 0 b 1 a 1
  0 = # of size 2 clusters
  0 = # of size 3 clusters
  0 = # of size 4 clusters
  96 = # of frozen angles
  find clusters CPU = 5.898e-05 secs
fix             2 all nph aniso ${pressure} ${pressure} ${pressureDamp}
fix             2 all nph aniso 1 ${pressure} ${pressureDamp}
fix             2 all nph aniso 1 1 ${pressureDamp}
fix             2 all nph aniso 1 1 1000
fix             3 all temp/csvr ${temperature} ${temperature} ${tempDamp} ${seed}
fix             3 all temp/csvr 300 ${temperature} ${tempDamp} ${seed}
fix             3 all temp/csvr 300 300 ${tempDamp} ${seed}
fix             3 all temp/csvr 300 300 100 ${seed}
fix             3 all temp/csvr 300 300 100 745821
velocity 	all create ${temperature} ${seed} dist gaussian
velocity 	all create 300 ${seed} dist gaussian
velocity 	all create 300 745821 dist gaussian

run             500000
PPPM initialization ...
  extracting TIP4P info from pair style
  using 12-bit tables for long-range coulomb (../kspace.cpp:323)
  G vector (1/distance) = 0.332588
  grid = 10 12 12
  stencil order = 5
  estimated absolute RMS force accuracy = 0.0231877
  estimated relative force accuracy = 6.98291e-05
  using double precision KISS FFT
  3d grid and FFT values/proc = 2873 360
Neighbor list info ...
  update every 1 steps, delay 10 steps, check yes
  max neighbors/atom: 2000, page size: 100000
  master list distance cutoff = 10.8154
  ghost atom cutoff = 10.8154
  binsize = 5.4077, bins = 3 3 3
  1 neighbor lists, perpetual/occasional/extra = 1 0 0
  (1) pair lj/cut/tip4p/long, perpetual
      attributes: half, newton on
      pair build: half/bin/newton
      stencil: half/bin/3d/newton
      bin: standard
Per MPI rank memory allocation (min/avg/max) = 9.047 | 9.047 | 9.047 Mbytes
Step Temp PotEng TotEng E_pair E_vdwl E_coul E_bond E_angle E_long E_tail Press Lx Ly Lz Volume 
       0          300   -1578.4443   -1407.6439   -1578.4443    404.79745    10496.467            0            0   -12479.709    -8.685473    5809.9236        13.47      15.5616    14.671634    3075.3909 
     500    317.08873   -1391.2368   -1210.7072   -1391.2368    346.30131    10738.924            0            0   -12476.462   -8.5048255    2503.0064    13.215569    16.335218    14.548479     3140.714 
    1000    290.77207   -1359.5576    -1194.011   -1359.5576    334.12439    10782.205            0            0   -12475.887   -8.4922592     2493.201    13.105238    16.135853    14.874204    3145.3615 
    1500    310.06992   -1368.9712   -1192.4376   -1368.9712    271.91111    10835.504            0            0   -12476.386     -8.11947   -2785.1338    13.489592    16.518581    14.763678    3289.7744 
    2000    288.68266   -1376.1055   -1211.7484   -1376.1055    335.52256    10764.366            0            0   -12475.994    -8.514312    1723.3842    13.333634    15.952898    14.748781    3137.2147 
    2500    301.31066   -1380.3066     -1208.76   -1380.3066    311.02142    10785.249            0            0   -12476.577   -8.3956481   -157.68293    13.160483    16.320374    14.812816     3181.556 
    3000    302.28329   -1394.3235   -1222.2231   -1394.3235    308.02288    10774.493            0            0   -12476.839     -8.47835   -319.59852    13.058023    16.248805    14.848536    3150.5216 
    3500    304.09215   -1398.5923   -1225.4621   -1398.5923    311.27119    10766.332            0            0   -12476.195   -8.3478652   -867.14251    13.504139    16.102515    14.714916    3199.7671 
    4000    294.13435   -1363.6495   -1196.1886   -1363.6495    307.51877    10805.606            0            0   -12476.775    -8.440647     266.8912    13.494937    16.232186    14.446751    3164.5945 
    4500    334.91401   -1392.8615   -1202.1833   -1392.8615    315.58999    10767.877            0            0   -12476.329   -8.4531298    88.808106    13.219836    15.962483    14.974411    3159.9213 
    5000    304.59695   -1387.9967   -1214.5791   -1387.9967     331.3579    10757.186            0            0   -12476.541   -8.4856703    1672.2742    13.073873    16.492243    14.599018    3147.8037 
    5500     323.1298   -1411.3079   -1227.3389   -1411.3079    318.50081    10747.181            0            0    -12476.99   -8.3534475   -260.66982     13.37912    16.029884    14.909741    3197.6289 
    6000    287.79122   -1389.4896     -1225.64   -1389.4896    308.96967    10778.113            0            0   -12476.572   -8.4870978   -498.25036     13.37691    16.223375    14.502323    3147.2743 
    6500    296.89233   -1383.7055   -1214.6744   -1383.7055    325.11684     10768.11            0            0   -12476.932   -8.4782139    890.33209    13.033748    16.197646    14.923415    3150.5722 
    7000    294.35805   -1370.9348   -1203.3465   -1370.9348    302.66052    10802.198            0            0   -12475.793   -8.2949336   -340.65055     13.19216    16.307785    14.968215    3220.1855 
    7500      294.945   -1392.6068   -1224.6843   -1392.6068    345.18668    10738.682            0            0   -12476.475   -8.5067719     2260.921    13.339301    16.310233    14.432307    3139.9954 
    8000    321.58426   -1368.4428   -1185.3538   -1368.4428     296.2525     10810.81            0            0   -12475.506   -8.2560434   -972.75246    13.509382    16.000913    14.967236    3235.3542 
    8500    321.46619   -1356.9937   -1173.9718   -1356.9937    281.61264    10837.405            0            0   -12476.011   -8.3945472   -867.89896    13.170403    16.531484    14.614556    3181.9733 
    9000    310.90486    -1382.046    -1205.037    -1382.046    334.86116    10759.827            0            0   -12476.734    -8.551259    2009.8177    13.057454    15.898286    15.047174    3123.6599 
    9500    310.27187   -1385.7514   -1209.1029   -1385.7514    323.63031    10767.491            0            0   -12476.873   -8.4203281    847.37255     13.33024    16.273977    14.622887    3172.2309 
   10000    280.72373   -1390.9514   -1231.1257   -1390.9514    310.95619    10774.328            0            0   -12476.236   -8.5440895    -193.3469    13.351664    16.036448    14.601062     3126.281 
   10500    291.47191   -1374.7386   -1208.7935   -1374.7386    275.11054     10827.15            0            0   -12476.999   -8.2830248   -2645.9502     13.20955    16.268125    15.006496    3224.8152 
   11000    280.11615   -1364.6809   -1205.2011   -1364.6809    287.19235    10824.135            0            0   -12476.008   -8.3793925   -1151.0098    13.159892    16.346086    14.818873    3187.7281 
   11500    272.84863   -1360.4532    -1205.111   -1360.4532    297.58417    10816.581            0            0   -12474.619   -8.4224889   -386.74878    13.409476    15.986638    14.793959     3171.417 
   12000    279.01361   -1377.1721     -1218.32   -1377.1721    315.46391    10784.238            0            0   -12476.874   -8.3811407    211.35757    13.515684    16.410524    14.369121    3187.0632 
   12500    305.71852   -1376.2102    -1202.154   -1376.2102    301.66401    10798.811            0            0   -12476.686   -8.4245728   -485.55851     13.18833    15.927805    15.093854    3170.6326 
   13000    267.62565   -1390.1922   -1237.8237   -1390.1922    294.02138    10793.118            0            0   -12477.331   -8.3466328    -1167.139    13.112798    16.561483    14.736281    3200.2396 
   13500    288.21737   -1397.1479   -1233.0558   -1397.1479    298.05542    10782.048            0            0   -12477.251   -8.3836435   -1615.7949    13.350565     16.14716    14.779686    3186.1117 
   14000    330.27918   -1388.4177   -1200.3783   -1388.4177    279.73761     10808.77            0            0   -12476.925   -8.2510899   -2273.7147    13.404851    16.333829     14.78538    3237.2965 
   14500    314.97402   -1372.3639   -1193.0383   -1372.3639    324.70045    10779.964            0            0   -12477.028   -8.5094086     1403.277     13.29748    16.220887    14.552931    3139.0224 
   15000     294.6438   -1373.6074   -1205.8564   -1373.6074    302.13075    10802.056            0            0   -12477.794   -8.2993874   -512.79102    13.152397    16.203173    15.102289    3218.4574 
   15500    280.01431   -1386.0148   -1226.5929   -1386.0148    313.10116    10777.982            0            0   -12477.098    -8.421115    63.627687    13.011552    16.471818    14.799723    3171.9344 
   16000    284.44667   -1382.6328   -1220.6874   -1382.6328    301.60062    10791.564            0            0   -12475.797   -8.2998546   -824.69971    13.404456    16.131003    14.883763    3218.2762 
   16500     328.7324    -1376.945   -1189.7862    -1376.945    292.37094    10806.245            0            0   -12475.561   -8.2775146   -1329.9507    13.456072     16.27929    14.731266    3226.9619 
   17000    313.35969    -1379.722   -1201.3154    -1379.722    328.92613    10768.315            0            0   -12476.963   -8.4955145    1219.7548    13.339358    16.009239    14.723075    3144.1562 
   17500    267.80241   -1383.1108   -1230.6416   -1383.1108    297.13521    10796.297            0            0   -12476.543   -8.3366922   -892.92063     13.10076    16.520495    14.804048    3204.0555 
   18000    306.01933   -1405.9583   -1231.7309   -1405.9583    323.97868    10747.341            0            0   -12477.278   -8.4120414    131.47867    13.154416    16.141586    14.954594    3175.3558 
   18500    288.97137   -1393.2152   -1228.6937   -1393.2152    323.88426    10760.486            0            0   -12477.585   -8.5472412    772.88369    13.256979    16.152695    14.594133    3125.1282 
   19000    315.66288   -1380.1962   -1200.4784   -1380.1962    291.82405    10804.587            0            0   -12476.607   -8.2804133   -1307.9521    13.433404    16.202966    14.820444    3225.8323 
   19500    305.00952   -1380.6243   -1206.9718   -1380.6243    368.05137    10727.697            0            0   -12476.372    -8.612748    4305.2797    13.157085    16.087541    14.652196    3101.3591 
   20000    299.48139   -1392.2439   -1221.7387   -1392.2439    309.96085    10773.848            0            0   -12476.052   -8.4035935   -207.06774    13.099402    16.328784    14.860159    3178.5479 
   20500    330.98415   -1374.8529   -1186.4121   -1374.8529    308.44375    10792.624            0            0   -12475.921   -8.3489397    128.24233    13.148731    16.268706     14.95635    3199.3553 
   21000    307.64169   -1396.8396   -1221.6885   -1396.8396    297.94905    10782.502            0            0   -12477.291   -8.4277629   -1467.9116    13.523406    16.155521    14.506894    3169.4324 
   21500    300.96567   -1359.7312    -1188.381   -1359.7312    302.09501    10813.639            0            0   -12475.465   -8.3789333   -122.13963    13.464098    16.072102    14.731776    3187.9028 
   22000    241.47971    -1377.798   -1240.3152    -1377.798    344.78124    10754.203            0            0   -12476.782   -8.5158226    2361.0865    13.062972    16.188791    14.832378    3136.6582 
   22500    299.27804   -1388.4681   -1218.0788   -1388.4681    317.02251    10771.524            0            0   -12477.015   -8.4662917    604.65622    13.070561    16.235766    14.867349    3155.0088 
   23000    296.16732   -1367.1223   -1198.5039   -1367.1223    312.67664    10796.335            0            0   -12476.134   -8.4210011    552.29792    13.290703    16.190112    14.741181    3171.9773 
   23500    305.53822   -1395.1855    -1221.232   -1395.1855    297.19632    10785.193            0            0   -12477.575   -8.4167963   -1380.3247    13.613041    16.122628    14.459591     3173.562 
   24000    290.48697     -1365.88   -1200.4957     -1365.88    293.56447    10817.118            0            0   -12476.562   -8.2785157   -1000.8639    13.312148    16.282153    14.886114    3226.5717 
   24500    286.04716   -1382.6525   -1219.7959   -1382.6525    308.06286    10785.556            0            0   -12476.271   -8.4287488   -69.756532    13.096829    16.300794    14.844164    3169.0617 
   25000    313.53028   -1370.8079   -1192.3042   -1370.8079    288.14477    10817.419            0            0   -12476.372   -8.3044741   -1249.7573    13.227896    16.332248    14.888293     3216.486 
   25500    324.71452   -1353.6125   -1168.7413   -1353.6125     324.4319    10798.303            0            0   -12476.347   -8.4197869    1417.0777    13.688007    15.930409    14.548746    3172.4348 
   26000     303.8955   -1378.2177   -1205.1994   -1378.2177    327.13677    10771.201            0            0   -12476.555   -8.4242638    1121.5543    13.305349    16.227607    14.685241    3170.7489 
   26500    301.50491    -1381.888   -1210.2308    -1381.888    312.02423    10783.014            0            0   -12476.927   -8.4768997    489.92951     13.09988    16.153083    14.891349    3151.0606 
   27000    294.72589   -1396.1014   -1228.3037   -1396.1014    279.61645    10800.838            0            0   -12476.556   -8.3252505   -2334.7105    13.162497    16.492996    14.779463     3208.459 
   27500    297.43421   -1375.5602   -1206.2205   -1375.5602    333.45851     10768.37            0            0   -12477.389   -8.4556955    1706.2616    13.432928    15.950911    14.743083    3158.9625 
   28000    291.61831    -1393.841   -1227.8126    -1393.841    321.11439     10760.57            0            0   -12475.525   -8.4026835    436.81838    13.399637    16.244016    14.604589    3178.8922 
   28500    303.98226   -1361.6371   -1188.5694   -1361.6371    288.86541    10825.152            0            0   -12475.655   -8.2755931    -1224.825    13.303436    16.079914    15.088537    3227.7112 
   29000    290.47161   -1401.8043   -1236.4288   -1401.8043    321.65065    10753.926            0            0   -12477.381   -8.4994858    411.24987    12.931292     16.49809    14.730774    3142.6872 
   29500    301.74361   -1382.5058   -1210.7127   -1382.5058    312.52828    10781.526            0            0    -12476.56   -8.3041881   -281.09282    13.348625    16.183009     14.89021    3216.5968 
   30000    327.37199   -1384.3915   -1198.0072   -1384.3915    317.36354    10775.172            0            0   -12476.927   -8.3491815    480.97574    13.381484    16.372299    14.602793    3199.2627 
   30500    300.45244   -1397.8752   -1226.8172   -1397.8752    306.13194    10772.967            0            0   -12476.974   -8.2791063   -991.38169    13.350728    16.093564    15.015962    3226.3416 
   31000    256.67209   -1400.8954   -1254.7631   -1400.8954     347.6564    10728.513            0            0   -12477.065    -8.583505    2241.8019    13.085007    16.380573    14.518645    3111.9251 
   31500    294.00927   -1389.0045   -1221.6148   -1389.0045    303.41956    10784.358            0            0   -12476.782   -8.4254859   -778.59881    13.251503    16.062346     14.89446    3170.2889 
   32000    265.28311    -1369.951   -1218.9161    -1369.951    302.80856    10802.565            0            0   -12475.324   -8.2540007   -684.32652    13.457687    16.260643    14.788399    3236.1549 
   32500    283.04209   -1367.5236   -1206.3779   -1367.5236    341.16482    10768.136            0            0   -12476.824   -8.5223487    2666.2353     13.31164    16.095574    14.628388    3134.2563 
   33000    272.51309    -1374.055   -1218.9039    -1374.055     303.0078    10799.713            0            0   -12476.775   -8.3976848   -441.75827    13.298595    16.095648    14.860041    3180.7844 
   33500    333.70727   -1369.3067   -1179.3156   -1369.3067    310.33521    10795.975            0            0   -12475.617   -8.3792496     590.5841    13.192934    16.334931    14.792105    3187.7824 
   34000    266.92983   -1390.7585   -1238.7861   -1390.7585    350.43845    10735.764            0            0   -12476.961   -8.5462084    2328.7521    13.408324    15.654145    14.890747    3125.5059 
   34500    293.27807    -1384.689   -1217.7156    -1384.689    305.72746    10786.287            0            0   -12476.703   -8.4492235   -118.61218    13.289418      16.5512    14.372806    3161.3822 
   35000    314.97288   -1403.0851   -1223.7601   -1403.0851    320.29701     10753.73            0            0   -12477.112   -8.4587479    67.781757    13.195824    15.871279    15.077845    3157.8225 
   35500    288.02081   -1388.7804   -1224.8001   -1388.7804    311.70092    10775.627            0            0   -12476.109   -8.4597804    182.97428    13.112482    16.592312    14.512523    3157.4371 
   36000    298.06486   -1414.0973   -1244.3987   -1414.0973    320.71967    10742.054            0            0   -12476.871   -8.4610149   -584.99658    13.411375    15.635085     15.05559    3156.9764 
   36500    299.97211    -1388.866   -1218.0814    -1388.866    317.41686    10770.547            0            0    -12476.83   -8.4421629    322.24727    13.393147    16.383809    14.419246    3164.0262 
   37000    292.37008   -1374.8221   -1208.3657   -1374.8221    315.34886    10785.681            0            0   -12475.852   -8.3451097    420.28645    13.251411     16.15236    14.954216    3200.8237 
   37500    315.15824   -1366.3307   -1186.9001   -1366.3307    315.46744    10795.494            0            0   -12477.292   -8.3415291    649.69468    13.128889    16.473261    14.806097    3202.1976 
   38000     294.6682   -1350.8828    -1183.118   -1350.8828    290.42276    10835.034            0            0    -12476.34   -8.2815909    -952.4136    13.416557    16.193481    14.845633    3225.3736 
   38500    283.20357   -1379.2946    -1218.057   -1379.2946    337.59074    10759.985            0            0    -12476.87   -8.4272187    1593.4924    13.538072    15.969995    14.660472    3169.6371 
   39000    324.60351   -1382.8857   -1198.0777   -1382.8857    301.41306    10792.726            0            0   -12477.025   -8.3699584   -424.72282    13.298151    16.418685    14.616415    3191.3211 
   39500    285.42392   -1387.9278    -1225.426   -1387.9278    319.86215    10768.493            0            0   -12476.283   -8.4427483    346.83703    13.170489     15.89061    15.117065    3163.8068 
   40000    278.53253   -1361.1118   -1202.5336   -1361.1118    293.01903    10820.311            0            0   -12474.441    -8.377158   -502.90702    13.172338    16.691024    14.502779    3188.5784 
   40500    290.16407   -1376.9925   -1211.7921   -1376.9925    315.79391    10784.123            0            0   -12476.909   -8.3854237    326.97269    13.336505     15.98814    14.939251    3185.4353 
   41000    284.31296   -1383.8807   -1222.0115   -1383.8807    313.14771    10780.037            0            0   -12477.066   -8.3770499   -160.80075     13.39603    16.303359    14.599887    3188.6195 
   41500    281.79339   -1377.5537    -1217.119   -1377.5537    299.80667    10799.644            0            0   -12477.004   -8.2722832   -1241.6854    13.428294    16.055053    14.977379    3229.0027 
   42000    285.11683   -1391.8958   -1229.5689   -1391.8958    295.05225    10790.263            0            0   -12477.211   -8.4207932   -1083.2346    13.072647    16.464749    14.737443    3172.0557 
   42500    279.78036   -1381.0052   -1221.7165   -1381.0052    324.13329    10771.645            0            0   -12476.783   -8.4259188    821.78986    13.222867    16.186159    14.811775     3170.126 
   43000    324.45467   -1372.9497   -1188.2264   -1372.9497    296.82908    10805.697            0            0   -12475.476   -8.2314648    -796.6125    13.532469    16.154944    14.843427    3245.0148 
   43500    312.29752    -1388.379   -1210.5771    -1388.379    321.73705    10765.619            0            0   -12475.735   -8.4759303    777.99379    13.428739    16.345468    14.357335     3151.421 
   44000    308.86905   -1386.6352   -1210.7853   -1386.6352    314.78227    10775.478            0            0   -12476.895    -8.455065    431.02398    13.051015    15.920106    15.205007     3159.198 
   44500    315.67637   -1370.6626   -1190.9371   -1370.6626    283.23373    10822.522            0            0   -12476.418   -8.2735799   -1676.5053    13.221777     16.44212    14.850898    3228.4966 
   45000    278.21993   -1372.5497   -1214.1495   -1372.5497    322.56743    10781.954            0            0   -12477.071   -8.5775132    1279.0346    13.263684    15.961703    14.709199    3114.0989 
   45500    303.59675   -1400.4962    -1227.648   -1400.4962    271.11524     10805.25            0            0   -12476.861   -8.2363526   -3414.7606    13.466798    16.344164    14.734378     3243.089 
   46000    326.51646   -1377.2183   -1191.3211   -1377.2183    337.44192    10762.102            0            0   -12476.762   -8.5966724     2280.569    13.139431    15.948977    14.827025    3107.1586 
   46500    314.81276   -1364.0913   -1184.8574   -1364.0913    267.72302    10844.994            0            0   -12476.808   -8.2223745   -2363.1506    13.250456    16.476482    14.879943    3248.6023 
   47000     289.0272   -1353.7691   -1189.2158   -1353.7691    293.30545    10829.154            0            0   -12476.229    -8.415592   -314.37359    13.328285    16.040133    14.846596    3174.0161 
   47500    311.52022      -1375.3   -1197.9408      -1375.3    306.19525    10794.326            0            0   -12475.822   -8.3771452   -122.25254    13.426944    16.187663    14.670214    3188.5832 
   48000    282.29458   -1392.5407   -1231.8206   -1392.5407    308.07535    10776.356            0            0   -12476.972   -8.4303507   -206.26943    13.159039    16.345146    14.731101    3168.4595 
   48500    304.78779   -1393.5606   -1220.0343   -1393.5606    333.41355    10749.363            0            0   -12476.337   -8.4679252    1432.2643    13.152986    16.062001    14.931133    3154.4002 
   49000    289.27172   -1383.7014   -1219.0089   -1383.7014    296.84349    10795.715            0            0    -12476.26   -8.3761537   -1155.6911    13.319802    16.462587    14.542976    3188.9607 
   49500    283.12439   -1361.9745   -1200.7819   -1361.9745    317.76506    10797.527            0            0   -12477.267      -8.4558    761.57301    13.544894    15.407824    15.136386    3158.9234 
   50000    297.89944   -1384.2968   -1214.6923   -1384.2968    309.92465    10782.562            0            0   -12476.783   -8.4587644    22.809393    13.212664    16.518368    14.468694    3157.8164 
   50500    300.04322   -1399.4107   -1228.5857   -1399.4107    318.90072     10758.36            0            0   -12476.671   -8.4350165    58.616157    13.205686    16.049052    14.941614    3166.7069 
   51000    294.56875    -1391.276   -1223.5678    -1391.276    304.43972    10781.043            0            0   -12476.759   -8.3952035   -632.65296    13.238126    16.322079    14.725179    3181.7245 
   51500     312.4771   -1355.5474   -1177.6433   -1355.5474    321.87162     10799.44            0            0   -12476.859   -8.5316733    1892.3514    13.284789    16.062936    14.671686    3130.8307 
   52000    285.72308   -1365.3477   -1202.6757   -1365.3477    285.94098     10825.46            0            0   -12476.748   -8.3204339   -1421.1263    13.353611    16.154667    14.881651    3210.3163 
   52500     285.2562   -1381.4373    -1219.031   -1381.4373     317.1847     10777.68            0            0   -12476.302   -8.4271064    595.89604    13.222291    16.338528    14.672215    3169.6793 
   53000     294.2507    -1346.194   -1178.6668    -1346.194    298.26832    10832.034            0            0   -12476.496   -8.3744839   -15.627576    13.264438    16.014146    15.015614    3189.5965 
   53500    317.07631   -1368.4716    -1187.949   -1368.4716    311.47477    10796.106            0            0   -12476.052   -8.4368781    614.17865    13.184148    16.527428    14.529634    3166.0082 
   54000     294.4972   -1382.1777   -1214.5102   -1382.1777    291.61533    10803.653            0            0   -12477.446   -8.4850551   -1513.3188    13.356453    15.662735    15.048056     3148.032 
   54500    280.73855   -1372.8289   -1212.9947   -1372.8289      307.639     10796.68            0            0   -12477.148    -8.429105     118.3178    13.293679    16.361497    14.569482    3168.9278 
   55000    310.69246   -1357.6564   -1180.7684   -1357.6564    304.18368    10814.658            0            0   -12476.498   -8.3610727    89.156746    13.293563    16.195789    14.838442    3194.7126 
   55500    329.14602   -1392.3425   -1204.9482   -1392.3425    324.89714     10759.27            0            0    -12476.51   -8.4740495     894.8412    13.221577    16.250198    14.671039    3152.1204 
   56000    284.82692    -1373.435   -1211.2732    -1373.435    288.92094     10814.14            0            0   -12476.496   -8.3031093   -1440.3874    13.482071    16.269124    14.666695    3217.0147 
   56500    296.27029   -1379.1106   -1210.4336   -1379.1106    346.49829    10751.568            0            0   -12477.176   -8.5661931    2701.4179    13.281923    15.935742    14.732372    3118.2142 
   57000    344.29167   -1373.9192    -1177.902   -1373.9192    310.38002    10792.371            0            0   -12476.671   -8.3879866    438.86728    13.209586    16.435129    14.668096     3184.462 
   57500    305.78527   -1365.0209   -1190.9267   -1365.0209    302.94031    10808.081            0            0   -12476.042    -8.335243   -181.96737    13.088324    16.293349    15.027306    3204.6126 
   58000    329.76599   -1381.5839   -1193.8367   -1381.5839    279.87607    10814.732            0            0   -12476.192   -8.3642325   -2212.9393     13.42487    16.426097    14.481823    3193.5058 
   58500     298.2112   -1386.8855   -1217.1035   -1386.8855    314.96461    10774.317            0            0   -12476.167   -8.3958515     109.4557    13.481928    15.953424    14.791872    3181.4789 
   59000    318.03427   -1386.2663   -1205.1983   -1386.2663    281.65165    10808.556            0            0   -12476.474   -8.2456904    -2123.731    13.313581    16.495858    14.750169    3239.4164 
   59500    330.86437   -1390.0982   -1201.7256   -1390.0982    302.81138    10783.284            0            0   -12476.193    -8.455488   -421.16215    13.095791    16.242982    14.851066      3159.04 
   60000     245.4354    -1378.136   -1238.4011    -1378.136    324.47045     10773.77            0            0   -12476.377   -8.3726913    892.27147    13.252361    16.259252    14.805903    3190.2794 
   60500    312.76259   -1372.2974   -1194.2308   -1372.2974     295.9718    10808.811            0            0    -12477.08   -8.2871007   -1019.9765     13.72346    16.092608      14.5949    3223.2292 
   61000    288.59411   -1374.1815   -1209.8748   -1374.1815    349.91016     10752.58            0            0   -12476.671    -8.452859    2877.1214    13.300734    16.095017     14.76125    3160.0225 
   61500    311.88019   -1370.3626   -1192.7984   -1370.3626    295.27356     10811.45            0            0   -12477.086   -8.3758549    -536.6265    13.011717    16.405463    14.939688    3189.0744 
   62000    291.57705   -1390.4463   -1224.4413   -1390.4463    299.39745    10786.163            0            0   -12476.006   -8.4002776   -1272.6309     13.36142    15.990679    14.882662    3179.8026 
   62500    330.71688   -1362.2861   -1173.9975   -1362.2861    295.42817    10818.207            0            0   -12475.921     -8.48091   -447.70964    13.472031    16.185646    14.444025    3149.5706 
   63000    308.01857   -1388.9044   -1213.5387   -1388.9044    288.48543     10799.62            0            0    -12477.01   -8.2967312   -1695.9019    13.305767    16.290357    14.853072    3219.4878 
   63500    282.90554   -1379.1239    -1218.056   -1379.1239    304.44418    10793.298            0            0   -12476.866   -8.4462272    -278.3826    13.101524    16.246003     14.85808    3162.5037 
   64000     270.7148   -1379.8747   -1225.7474   -1379.8747    295.69481     10801.09            0            0   -12476.659   -8.3770613    -829.1615    13.212657    16.418358    14.698811    3188.6152 
   64500    306.03033   -1382.7878   -1208.5541   -1382.7878    319.46259    10773.547            0            0   -12475.797   -8.5190572    656.87506    13.428292    15.863024    14.719583    3135.4672 
   65000    320.62018   -1373.9595   -1191.4193   -1373.9595    333.97244     10768.44            0            0   -12476.372    -8.547247     2084.317    13.379803    16.257528    14.366908    3125.1261 
   65500    297.43272   -1401.1381   -1231.7993   -1401.1381    340.91072    10734.367            0            0   -12476.416   -8.5331634     1594.978    13.107644    15.991049    14.934206     3130.284 
   66000    302.86334   -1391.9235   -1219.4928   -1391.9235    283.03428    10802.393            0            0   -12477.351   -8.2844251   -2344.2211     13.22076    16.420958    14.851712    3224.2702 
   66500    299.90024   -1392.6154   -1221.8718   -1392.6154    325.72855    10758.688            0            0   -12477.032   -8.4663799    778.62384    13.287348    16.137373    14.713802    3154.9759 
   67000    298.13014   -1369.6412   -1199.9053   -1369.6412    292.19193    10814.465            0            0   -12476.298   -8.2603888   -1028.5926    13.481212    16.326833    14.691375    3233.6522 
   67500    275.15534   -1356.2291   -1199.5736   -1356.2291    316.11593    10804.272            0            0   -12476.617   -8.5099585    1231.2637    13.265771    16.132935    14.666297    3138.8196 
   68000    306.62038   -1372.1779   -1197.6082   -1372.1779    305.96518    10798.792            0            0   -12476.935   -8.3041288   -258.17677    13.179864     16.31279    14.960998    3216.6198 
   68500    292.02518   -1377.8978   -1211.6377   -1377.8978    321.63288    10777.375            0            0   -12476.906   -8.4728499    723.54878    13.272897    16.221785    14.641984    3152.5667 
   69000    304.69844   -1387.8412   -1214.3658   -1387.8412    312.27734    10776.514            0            0   -12476.632   -8.3881435    -237.7811    13.450648    16.064327    14.737445    3184.4024 
   69500    277.58062   -1382.4666   -1224.4303   -1382.4666    301.78851    10792.356            0            0   -12476.611   -8.3190939   -914.78095    13.361251    16.360311    14.688555    3210.8334 
   70000    299.95845   -1368.0023   -1197.2256   -1368.0023    295.04286    10813.906            0            0   -12476.951   -8.3307699   -850.27358    13.294371    16.182056    14.904149    3206.3333 
   70500    286.09459   -1387.5089   -1224.6253   -1387.5089    269.42533    10819.641            0            0   -12476.575    -8.227103   -3051.5149    13.174956    16.520661    14.916614    3246.7352 
   71000    312.21639   -1374.2968   -1196.5412   -1374.2968    312.79963    10789.586            0            0   -12476.682   -8.3960889     69.47949    13.456022    16.122248    14.664744     3181.389 
   71500    313.32441   -1360.0662   -1181.6798   -1360.0662    306.86273    10809.389            0            0   -12476.318   -8.3477037     389.1335    13.513973    16.137409    14.672696     3199.829 
   72000    267.60648   -1376.8063   -1224.4486   -1376.8063    303.79462    10794.848            0            0   -12475.449   -8.3802734   -390.30787    13.169466    16.413335    14.745876     3187.393 
   72500    293.39138   -1375.3676   -1208.3297   -1375.3676    301.46106    10799.869            0            0   -12476.697   -8.3712943    -402.6295    13.162306    16.186298    14.976891    3190.8118 
   73000    305.40947   -1397.7867   -1223.9065   -1397.7867     318.7629    10760.114            0            0   -12476.664   -8.3931829   -8.2492132    13.294646    16.298679    14.687164    3182.4905 
   73500    299.55677   -1375.4862   -1204.9381   -1375.4862     307.8025    10793.206            0            0   -12476.495   -8.4904286   -105.41565     13.32774    15.952851    14.796853    3146.0396 
   74000    292.80294   -1377.6975   -1210.9947   -1377.6975    261.05061    10837.779            0            0   -12476.527   -8.1638734   -3828.1652    13.436316    16.540326    14.722218    3271.8813 
   74500    299.34637   -1388.2973    -1217.869   -1388.2973    322.47024    10766.566            0            0   -12477.333   -8.5098948    837.37534    13.072952    16.087132    14.925102    3138.8431 
   75000     277.7372   -1374.8193   -1216.6939   -1374.8193    306.37398     10795.77            0            0   -12476.963   -8.4660088    21.380819    13.100559    16.295435    14.779484    3155.1142 
   75500    327.64149   -1392.4524   -1205.9148   -1392.4524    301.29377    10782.946            0            0   -12476.692   -8.4084861    -849.0489    13.474689    16.122582    14.622534    3176.6984 
   76000    326.67837   -1372.3796   -1186.3902   -1372.3796    328.17181    10775.486            0            0   -12476.038   -8.5163284     1898.958    13.230379    16.123645    14.702998    3136.4719 
   76500      298.564   -1381.3017   -1211.3188   -1381.3017    324.36795    10770.792            0            0   -12476.462   -8.3558392     668.3554    13.288838    16.281802     14.77455    3196.7136 
   77000    287.82954   -1362.7835   -1198.9121   -1362.7835    294.09352    10819.303            0            0    -12476.18   -8.4814479   -685.21743    13.148537    16.143509    14.837079    3149.3709 
   77500    307.32681   -1385.0159   -1210.0441   -1385.0159    293.00203     10798.54            0            0   -12476.558   -8.4250579   -1124.6394    13.289423    16.491236    14.466437      3170.45 
   78000    292.14145   -1375.5528   -1209.2265   -1375.5528    297.11989    10803.864            0            0   -12476.536   -8.4484109   -990.93932    13.638259    15.422169    15.031918    3161.6863 
   78500    293.27097   -1340.0621   -1173.0927   -1340.0621    294.80345    10841.206            0            0   -12476.071   -8.3774757   -26.251321    13.311201    16.467609    14.545641    3188.4575 
   79000    300.13612   -1390.4615   -1219.5836   -1390.4615    311.83512    10774.461            0            0   -12476.757   -8.3893735   -211.01799    13.271369     16.08441    14.915693    3183.9356 
   79500    299.30669   -1390.0493   -1219.6436   -1390.0493    328.45173    10758.349            0            0    -12476.85   -8.4137606    982.84961    13.244339    16.320466    14.687261     3174.707 
   80000    296.29534   -1385.8725   -1217.1813   -1385.8725    326.13356    10764.432            0            0   -12476.438   -8.4320501    919.45177    13.286502    16.059639    14.846161    3167.8209 
   80500    315.50542   -1364.7747   -1185.1465   -1364.7747    293.64757    10817.269            0            0   -12475.692    -8.393814   -537.51673    13.257612    16.044673    14.960231    3182.2512 
   81000    294.09224   -1367.9038   -1200.4669   -1367.9038    314.49449    10794.247            0            0   -12476.645    -8.419847    876.33042    13.176328    16.510726    14.582401    3172.4121 
   81500    293.54187   -1351.1926    -1184.069   -1351.1926    282.92888    10841.703            0            0   -12475.824   -8.3124482    -1428.851    13.349521    16.003683    15.041088    3213.4004 
   82000    300.57136    -1356.528   -1185.4022    -1356.528    307.36172    10811.347            0            0   -12475.236   -8.4766102    806.36025    13.259619     16.32691    14.555815    3151.1682 
   82500    334.74317   -1374.7675   -1184.1866   -1374.7675    275.49274    10826.266            0            0   -12476.526    -8.177045    -2711.395     13.60605    15.834527    15.162131     3266.611 
   83000    297.27287   -1377.9917    -1208.744   -1377.9917     338.2901    10760.171            0            0   -12476.453    -8.500436    2517.3532    13.024034    16.478729    14.641426    3142.3359 
   83500    297.26544   -1374.6036     -1205.36   -1374.6036    304.04351    10796.973            0            0    -12475.62   -8.4308094     43.16921    13.206802     16.06509    14.932884    3168.2871 
   84000    282.66229   -1381.4754   -1220.5459   -1381.4754    297.95018    10796.906            0            0   -12476.331   -8.2667127   -1202.5872    13.415342    16.297822    14.778475    3231.1786 
   84500    323.41029   -1391.5214   -1207.3927   -1391.5214     335.4611    10749.201            0            0   -12476.183   -8.5400068    1664.6002    13.331105     16.15026    14.527468    3127.7756 
   85000    308.75284   -1383.3343   -1207.5506   -1383.3343    312.70081    10780.966            0            0   -12477.002   -8.3597416   -259.49599     13.31056    15.767234    15.224713    3195.2214 
   85500      288.907   -1390.7506   -1226.2658   -1390.7506    334.53097    10751.175            0            0   -12476.456   -8.6053767    2072.1012    13.122018    16.356773     14.46191    3104.0157 
   86000    326.47095   -1363.0254   -1177.1541   -1363.0254    343.53914    10769.245            0            0   -12475.809   -8.4446528    2669.9248    13.327172    15.936606    14.892862    3163.0933 
   86500    304.99768   -1398.7967   -1225.1509   -1398.7967    307.07404    10771.404            0            0   -12477.275    -8.390867   -832.90714     13.42201    16.396477    14.465013    3183.3689 
   87000    328.40577   -1395.9652   -1208.9924   -1395.9652    324.98315    10756.049            0            0   -12476.997   -8.4830106    706.10769    13.325282    15.870557    14.889332    3148.7907 
   87500    294.96742   -1381.5953   -1213.6601   -1381.5953    305.04474     10788.65            0            0    -12475.29   -8.3823477   -393.56048    13.156002    16.316899    14.844534    3186.6043 
   88000    290.97007   -1372.1779   -1206.5186   -1372.1779    308.63978    10795.207            0            0   -12476.024   -8.3925028    183.78713     13.25047    16.352735    14.688607    3182.7484 
   88500    313.42042   -1368.6485   -1190.2074   -1368.6485    309.62602    10798.843            0            0   -12477.118   -8.3459403    139.39588    13.505508    15.890683    14.913001    3200.5051 
   89000    296.11247   -1366.6524   -1198.0653   -1366.6524    334.87209      10775.3            0            0   -12476.824   -8.5515692    2295.3868    13.240158    16.378297    14.404098    3123.5466 
   89500    305.84907   -1383.8491   -1209.7186   -1383.8491    300.79211    10791.328            0            0   -12475.969   -8.3742535   -831.87066    13.276901    16.080374    14.940145    3189.6843 
   90000    293.47194    -1390.736   -1223.6522    -1390.736    335.92129    10749.911            0            0   -12476.568   -8.5409169    1770.4759    13.160835    16.321509     14.55947    3127.4423 
   90500    299.13162   -1355.0798   -1184.7738   -1355.0798    302.56215    10817.636            0            0   -12475.277   -8.4267224    10.999613    13.340078    15.974804     14.87446    3169.8238 
   91000    306.82244   -1361.8742   -1187.1895   -1361.8742    276.21057    10838.718            0            0   -12476.803   -8.3346336    -1594.882    13.457578    16.756886    14.211734    3204.8469 
   91500    299.77877   -1379.4102   -1208.7357   -1379.4102    307.69501    10790.592            0            0   -12477.697   -8.4353854   -95.555472    13.228197    15.975864    14.983865    3166.5684 
   92000    297.79314   -1380.0605   -1210.5166   -1380.0605    297.61253    10797.951            0            0   -12475.624   -8.3353616   -957.37218    13.241893    16.368295    14.784813     3204.567 
   92500    316.16176   -1363.4394   -1183.4375   -1363.4394     308.1206    10804.645            0            0   -12476.205   -8.4571136    362.15028    13.341491    15.986546    14.808553    3158.4328 
   93000    298.71712   -1381.0541    -1210.984   -1381.0541    298.39363    10796.421            0            0   -12475.869   -8.3687244   -1116.8866    13.589272    16.250614    14.453352    3191.7917 
   93500    304.45439   -1369.5862   -1196.2497   -1369.5862    309.27007    10797.553            0            0    -12476.41   -8.5134536    615.64039    13.204117     16.11586    14.744334     3137.531 
   94000    299.77225   -1389.4361   -1218.7653   -1389.4361    312.78066    10775.327            0            0   -12477.544   -8.3095153   -553.49388      13.2081    16.329902    14.903703    3214.5346 
   94500     309.8037   -1399.2694   -1222.8874   -1399.2694    318.07513    10759.561            0            0   -12476.906   -8.5099425    176.19519    13.268621    16.270823    14.538911    3138.8255 
   95000    299.34535   -1353.6323   -1183.2046   -1353.6323    303.44278    10819.325            0            0   -12476.401   -8.4065531   -46.452475    13.614002    15.574003     14.98614    3177.4289 
   95500    285.47586   -1386.1659   -1223.6346   -1386.1659    286.10196    10804.126            0            0   -12476.394   -8.3343677   -1803.7241    13.248687    16.642842    14.535193    3204.9492 
   96000    292.15484   -1372.4209    -1206.087   -1372.4209    308.65604    10794.877            0            0   -12475.954   -8.3824747    55.661013    13.228862    16.106114    14.955753     3186.556 
   96500    298.45378   -1359.7114   -1189.7913   -1359.7114    293.05852    10823.995            0            0   -12476.765   -8.3200536   -747.07725    13.313011    16.525955    14.592336    3210.4631 
   97000    355.64579   -1385.0639   -1182.5824   -1385.0639    290.26433     10801.06            0            0   -12476.388   -8.3704809   -1614.0371    13.561354    15.842003    14.853549    3191.1219 
   97500    334.83945   -1396.9728   -1206.3371   -1396.9728    306.36577     10773.52            0            0   -12476.859   -8.3902089   -406.88583    13.242862    16.506108    14.564463    3183.6186 
   98000    303.36924   -1352.8024   -1180.0838   -1352.8024    291.92151    10830.585            0            0   -12475.309   -8.1829313   -956.36692    13.204345    16.210492     15.25007    3264.2612 
   98500    318.07405   -1380.8564   -1199.7658   -1380.8564    339.79534    10756.411            0            0   -12477.063   -8.5466668    2328.1626    13.220759    16.268728    14.530717    3125.3383 
   99000     318.2462   -1381.7946    -1200.606   -1381.7946    317.96305     10776.87            0            0   -12476.628   -8.5000803    842.79204    13.312802    16.107934    14.654178    3142.4674 
   99500    314.47629   -1381.9345   -1202.8923   -1381.9345    268.29338    10825.624            0            0   -12475.852   -8.2117298   -3345.4939    13.497268    16.294387    14.790241    3252.8134 
  100000    324.14241    -1357.577   -1173.0315    -1357.577    316.19155    10801.229            0            0   -12474.998   -8.5899338    1463.8472     13.10131    16.216421    14.636399    3109.5961 
  100500    270.14468   -1395.5632   -1241.7604   -1395.5632    320.01855    10760.694            0            0   -12476.276   -8.5737626    407.89399    13.131163    16.050978     14.78147    3115.4612 
  101000    291.25761    -1389.577   -1223.7539    -1389.577    296.21325    10790.916            0            0   -12476.707    -8.403222   -1085.6364    13.409666    16.355455    14.493304    3178.6884 
  101500    285.87033   -1370.4962   -1207.7403   -1370.4962    308.89121    10797.929            0            0   -12477.316   -8.4122513   -166.74242    13.468151    16.001485     14.73375    3175.2766 
  102000    270.21202   -1355.1792   -1201.3381   -1355.1792    330.82247    10790.253            0            0   -12476.255   -8.5977244    2531.9325    13.074873    16.361917    14.522408    3106.7784 
  102500    276.51945   -1382.8923   -1225.4602   -1382.8923    295.49924    10797.997            0            0   -12476.388   -8.4158656   -1071.8797    13.091192    16.045226    15.110192    3173.9129 
  103000    301.36853   -1376.6294   -1205.0499   -1376.6294    316.68933    10784.081            0            0   -12477.399   -8.5003162    700.96888    13.228482    16.307817    14.566422    3142.3801 
  103500    314.54191   -1366.1388   -1187.0591   -1366.1388    318.54306    10792.181            0            0   -12476.863   -8.4618723     1118.412    13.435563    16.058547    14.630704    3156.6566 
  104000    292.44426   -1373.2099   -1206.7112   -1373.2099    322.58189     10781.07            0            0   -12476.861    -8.450221    975.97326    13.310873    16.254938     14.60945     3161.009 
  104500    241.36899   -1361.4397   -1224.0199   -1361.4397    300.93592    10814.043            0            0   -12476.418   -8.4078407    150.79574    12.998751    16.299092    14.994924    3176.9423 
  105000     290.1214   -1396.4698   -1231.2936   -1396.4698    305.24765    10775.352            0            0    -12477.07   -8.4894702   -779.63301    13.225982    16.251217    14.638595    3146.3948 
  105500    323.92111   -1392.9346   -1208.5151   -1392.9346    318.56261    10765.405            0            0   -12476.902   -8.4832461    388.73113    13.557299     15.99996    14.515755    3148.7033 
  106000    304.15735   -1343.4467   -1170.2794   -1343.4467    306.13774    10826.405            0            0   -12475.989   -8.2895836    773.54731    13.348316    16.265908    14.840765    3222.2638 
  106500    295.47131   -1395.9922   -1227.7702   -1395.9922    336.72289    10744.522            0            0   -12477.237   -8.4697004    1381.6441    13.190775    16.359322    14.614708     3153.739 
  107000    331.65212   -1396.7016   -1207.8806   -1396.7016    366.67002    10713.738            0            0    -12477.11   -8.5406332    3703.0528    13.221827    15.856928    14.917402    3127.5462 
  107500    318.25794   -1374.6079   -1193.4126   -1374.6079    261.94118     10839.33            0            0   -12475.879   -8.2010915   -3190.1888    13.517826    16.753171    14.381967    3257.0329 
  108000    307.09739   -1397.8272    -1222.986   -1397.8272    318.68691    10760.474            0            0   -12476.988   -8.3670349   -187.45998    13.429899    15.957314    14.896687    3192.4362 
  108500    282.12873   -1385.5471   -1224.9214   -1385.5471     326.0475    10764.733            0            0   -12476.328    -8.355091    808.91345     13.25081    16.341241    14.764378    3196.9999 
  109000    308.16733   -1389.2025   -1213.7522   -1389.2025    267.95981    10819.274            0            0   -12476.436   -8.2090246   -3449.5604     13.22842     16.51984    14.889785    3253.8853 
  109500    272.22959   -1389.7913   -1234.8015   -1389.7913     329.3801    10757.963            0            0   -12477.134   -8.5398617    1030.1587    13.308412    15.941347    14.743199    3127.8287 
  110000     323.0265   -1376.6314   -1192.7212   -1376.6314    309.15945    10790.969            0            0    -12476.76   -8.4234296    184.85601    13.352712    16.219637    14.641792    3171.0628 
  110500    292.26754   -1352.6867   -1186.2886   -1352.6867     284.3625    10838.697            0            0   -12475.746   -8.2080168   -1454.3533     13.36929    16.242805    14.986016    3254.2848 
  111000    301.37631   -1395.4172   -1223.8332   -1395.4172    309.75433    10772.068            0            0    -12477.24   -8.5619543   -281.00443    13.141572    16.205929    14.648719    3119.7579 
  111500    341.01278   -1361.8727   -1167.7223   -1361.8727    279.24897    10834.947            0            0   -12476.069   -8.2651521   -1628.3051    13.330642    16.160962    15.001154    3231.7886 
  112000    306.17982   -1371.2569   -1196.9381   -1371.2569    333.61686    10771.141            0            0   -12476.015   -8.5224772    2023.8902    13.352412     16.11286    14.567855     3134.209 
  112500    293.77266   -1365.8065   -1198.5516   -1365.8065    300.09595    10809.618            0            0    -12475.52   -8.3080158   -645.24555    13.388758    16.235037    14.791183    3215.1148 
  113000    312.50374   -1388.3768   -1210.4575   -1388.3768    320.80982    10767.133            0            0    -12476.32   -8.4453617     709.6711    13.033516    16.137808    15.037284    3162.8278 
  113500    306.58148   -1382.7394    -1208.192   -1382.7394    313.70337    10780.152            0            0   -12476.595   -8.4297362    310.68387    13.207337    16.345775    14.677735    3168.6905 
  114000    308.61284   -1393.2923   -1217.5883   -1393.2923    314.60618    10769.348            0            0   -12477.247   -8.3423244   -139.96117    13.402787    16.061016    14.874371    3201.8924 
  114500    319.54556   -1383.7335   -1201.8051   -1383.7335    293.50806    10799.222            0            0   -12476.464   -8.3803246   -1121.8665    13.305668    16.400567    14.606205    3187.3735 
  115000    277.28602   -1372.4057   -1214.5372   -1372.4057    307.19764    10796.623            0            0   -12476.226   -8.4026173    -271.6468    13.150201    15.954259    15.152008    3178.9172 
  115500    278.40588   -1385.6554   -1227.1493   -1385.6554    305.03699    10786.314            0            0   -12477.007   -8.4373896   -330.43018    13.179939      16.4492     14.60251    3165.8162 
  116000    301.87378   -1379.1521   -1207.2849   -1379.1521    286.01238    10811.438            0            0   -12476.602   -8.3328788   -1813.3994    13.542368    16.029805    14.766443    3205.5218 
  116500    276.56354   -1367.6436   -1210.1864   -1367.6436    299.19701    10809.635            0            0   -12476.475   -8.4041122   -560.72472    13.351176    16.172869    14.719578    3178.3517 
  117000    284.93047   -1384.8798    -1222.659   -1384.8798    302.89663    10788.762            0            0   -12476.538   -8.3937373   -730.57625    13.232121     16.47948    14.593701    3182.2803 
  117500    306.54109    -1381.486   -1206.9615    -1381.486    322.14031    10773.466            0            0   -12477.092   -8.5286543    1001.1481    13.089888    15.828246    15.116268     3131.939 
  118000    302.36459   -1401.0762   -1228.9295   -1401.0762     357.7293    10718.588            0            0   -12477.394   -8.6190906    3274.5147    13.200386    16.377935    14.334633    3099.0769 
  118500    285.31392   -1360.7179   -1198.2788   -1360.7179    292.92583    10822.174            0            0   -12475.818   -8.3659078   -689.35297    13.499178    15.883002    14.891582    3192.8663 
  119000    310.16433   -1389.3142   -1212.7269   -1389.3142    295.55519    10791.196            0            0   -12476.066   -8.4107309   -1223.9143    13.255793    16.330283    14.671031    3175.8506 
  119500    282.43298   -1375.4501   -1214.6512   -1375.4501    295.79899    10805.831            0            0    -12477.08     -8.37126    -750.5216    13.278673    16.162332    14.867717    3190.8249 
  120000    287.35016   -1400.2465    -1236.648   -1400.2465    296.83858    10780.119            0            0   -12477.204   -8.3669741   -1439.6798    13.194543    16.293758    14.849429    3192.4594 
  120500    317.80556   -1377.0599   -1196.1221   -1377.0599    315.25895    10784.918            0            0   -12477.237   -8.4944909    1065.1839    13.259153    16.179273    14.658235    3144.5351 
  121000    312.91809   -1364.0451   -1185.8899   -1364.0451    290.69041    10821.816            0            0   -12476.552   -8.3048969   -1145.2748    13.421982    16.019652    14.958561    3216.3222 
  121500    284.33486   -1363.9276   -1202.0459   -1363.9276    324.24076    10787.163            0            0   -12475.331   -8.4934995    1606.5673     13.38449    16.457899    14.276801    3144.9022 
  122000    277.20542    -1382.317   -1224.4943    -1382.317    311.70747    10782.458            0            0   -12476.482   -8.4822589   -135.57269    13.289591    15.662036    15.129426    3149.0697 
  122500    292.78494   -1361.9891   -1195.2965   -1361.9891    297.13986    10818.124            0            0   -12477.253   -8.3677182   -196.75103    13.076751    16.568761    14.733192    3192.1755 
  123000    360.78849   -1381.2548   -1175.8454   -1381.2548      302.257    10792.991            0            0   -12476.503   -8.4122874   -173.83821    13.274519    16.088982    14.867308     3175.263 
  123500    319.76214   -1363.4387    -1181.387   -1363.4387    329.55484    10783.334            0            0   -12476.327   -8.4938846    2025.1927     13.50378    16.176271    14.396393    3144.7596 
  124000    315.90557   -1366.6413   -1186.7853   -1366.6413    293.62839    10816.138            0            0   -12476.408   -8.4004118   -703.23082    13.336443    16.225224    14.694761    3179.7518 
  124500    306.31915   -1397.1306   -1222.7325   -1397.1306    308.68353    10770.493            0            0   -12476.307   -8.3824246   -615.64583    13.109313    16.241046    14.966844     3186.575 
  125000    277.58534   -1387.2174   -1229.1784   -1387.2174     321.9992    10768.131            0            0   -12477.348   -8.5393538    1042.0141    13.143607    16.245211    14.649706    3128.0148 
  125500    287.07865   -1386.5399    -1223.096   -1386.5399    295.49078    10794.897            0            0   -12476.927   -8.3614129   -1457.1703    13.459256    16.078075     14.76247    3194.5827 
  126000    272.66627   -1401.4087   -1246.1704   -1401.4087     312.9032    10762.973            0            0   -12477.285   -8.4649635   -139.52441    13.165895    16.633405     14.40911    3155.5038 
  126500    302.43102   -1378.9954   -1206.8109   -1378.9954    302.07394    10795.525            0            0   -12476.594   -8.4142393   -453.17505    13.049555    15.994533    15.209385    3174.5264 
  127000     254.0459   -1391.0412   -1246.4041   -1391.0412    320.61197    10765.246            0            0   -12476.899   -8.4572551    405.09361    13.255195    16.374724    14.551382    3158.3799 
  127500    286.56246   -1353.8703   -1190.7203   -1353.8703    285.08633    10837.612            0            0   -12476.569   -8.4683614   -901.83191    13.410668    16.020588    14.681335    3154.2377 
  128000    283.75624   -1373.9735   -1212.4212   -1373.9735    310.25396    10791.952            0            0    -12476.18   -8.3688007   -31.148707    13.357107    16.216623    14.735258    3191.7626 
  128500     324.1957   -1382.2709    -1197.695   -1382.2709    306.40574     10788.01            0            0   -12476.687   -8.4299111    -36.20986    13.080831     16.51364    14.668735    3168.6247 
  129000    282.12047   -1377.0787   -1216.4578   -1377.0787    313.86228     10785.75            0            0   -12476.691   -8.4125325    159.84763    13.291657    16.071431    14.863921    3175.1705 
  129500    311.54987   -1398.8337   -1221.4576   -1398.8337     295.6569    10781.586            0            0   -12476.076   -8.2994985    -1602.446    13.388176    16.434682    14.627134    3218.4143 
  130000    301.96372   -1377.6941   -1205.7757   -1377.6941    335.18802    10764.234            0            0   -12477.116   -8.5492329    1829.8067     13.26558    15.900093    14.812922    3124.4002 
  130500    288.53122   -1370.6775   -1206.4066   -1370.6775    303.38663    10802.312            0            0   -12476.376   -8.3845757    10.014347    13.100722    16.669002    14.588407    3185.7575 
  131000    286.69431    -1379.285     -1216.06    -1379.285    311.72952    10785.046            0            0   -12476.061   -8.4109598   -68.431064     13.23758     15.95684     15.03463    3175.7642 
  131500    312.74557   -1371.6018   -1193.5449   -1371.6018    335.86115    10769.243            0            0   -12476.706   -8.5052593    2134.3206    13.422781    16.172784    14.467016    3140.5538 
  132000    298.72962   -1375.6368   -1205.5597   -1375.6368    304.33202    10795.945            0            0   -12475.914   -8.3104967    -312.4693    13.337507    16.261951    14.819021     3214.155 
  132500    303.97059   -1388.7761   -1215.7151   -1388.7761    332.90503     10755.59            0            0   -12477.271   -8.4705411    1332.1731    13.158895    16.157584    14.831559     3153.426 
  133000    311.95709    -1388.003   -1210.3949    -1388.003    314.93978    10773.797            0            0    -12476.74    -8.540294    337.78567    13.187658    16.319614    14.532604    3127.6704 
  133500    325.43451   -1382.8453   -1197.5642   -1382.8453    282.88106    10810.597            0            0   -12476.323   -8.2714822   -1872.0608    13.389034    16.111158    14.970436    3229.3154 
  134000    284.88674    -1383.618   -1221.4221    -1383.618     307.2744    10785.718            0            0   -12476.611    -8.435213   -161.76046    13.271862    16.264402    14.669922    3166.6331 
  134500    299.52165   -1382.3668   -1211.8387   -1382.3668    308.49536    10785.089            0            0   -12475.951   -8.3603214   -333.22043    13.218065    16.130651    14.984803    3194.9997 
  135000    298.79047   -1370.1197   -1200.0079   -1370.1197    336.97783    10768.347            0            0   -12475.445   -8.4886629     2484.038    13.090104    16.414597    14.644724     3146.694 
  135500    293.16005   -1390.4536   -1223.5474   -1390.4536    300.66057    10785.857            0            0   -12476.971   -8.3858882   -1162.2426    13.516327    15.848717    14.869348    3185.2589 
  136000    275.07254   -1376.2765   -1219.6682   -1376.2765    310.05452    10789.981            0            0   -12476.312   -8.3809177   -272.43877    13.456058    16.204183    14.616966     3187.148 
  136500    304.71957   -1377.1664   -1203.6789   -1377.1664    294.74784     10805.06            0            0   -12476.974   -8.4385015    -921.7426    13.162091    16.245605    14.803612    3165.3991 
  137000    304.23908   -1372.1097   -1198.8958   -1372.1097    282.77591    10821.162            0            0   -12476.047   -8.3157813   -1641.3945    13.102713     16.23709    15.098066    3212.1125 
  137500    308.99699   -1370.5361   -1194.6134   -1370.5361    313.45068    10792.218            0            0   -12476.204    -8.425141    647.27443    13.339679    16.332416    14.551937    3170.4187 
  138000    313.06265   -1375.0013   -1196.7638   -1375.0013    317.01793    10784.348            0            0   -12476.367   -8.3144292     80.10875    13.436895    16.022956    14.921751    3212.6348 
  138500    316.10031   -1374.1841   -1194.2172   -1374.1841     313.0998    10789.496            0            0    -12476.78   -8.4261539    613.40293    13.248747    16.459946    14.536545    3170.0376 
  139000    298.34057   -1377.9237    -1208.068   -1377.9237    332.21827    10765.798            0            0    -12475.94   -8.5289079    1747.5663    13.150254    15.878567    14.998746    3131.8458 
  139500    336.50212    -1387.205   -1195.6227    -1387.205     315.0621    10773.842            0            0   -12476.109   -8.4950925    782.44345    13.182462    16.506867    14.449889    3144.3124 
  140000    341.66157   -1387.3473   -1192.8275   -1387.3473     318.0091    10770.521            0            0   -12475.878   -8.3861267    322.32795    13.390485    15.866444    14.991892    3185.1683 
  140500    292.29393   -1362.1281    -1195.715   -1362.1281    296.37986    10817.045            0            0   -12475.553   -8.3262695   -435.83167    13.348287    16.389694    14.663815    3208.0663 
  141000    315.12627   -1372.7194    -1193.307   -1372.7194    273.87469    10829.748            0            0   -12476.343   -8.1783641   -2564.9318    13.366061    16.105046    15.172668    3266.0841 
  141500    305.56987   -1381.2152   -1207.2436   -1381.2152    315.19115    10780.558            0            0   -12476.964   -8.4166253    389.87871     13.38904    16.386884    14.464718    3173.6264 
  142000    284.51331   -1390.0209   -1228.0376   -1390.0209    294.39052     10792.21            0            0   -12476.622   -8.4010478   -1406.8687    13.336062    16.144285    14.767737    3179.5111 
  142500    311.26114   -1369.4164   -1192.2046   -1369.4164    261.89897    10844.756            0            0   -12476.072   -8.2938035   -3016.7463    13.268087    16.215647    14.969162    3220.6243 
  143000    259.72102   -1373.4524   -1225.5842   -1373.4524    306.40387    10796.731            0            0   -12476.587    -8.452792   -112.85214    13.335999    16.151242    14.671082    3160.0476 
  143500    311.32619   -1379.1547   -1201.9059   -1379.1547    321.16023    10776.715            0            0    -12477.03   -8.4775533    1109.6725     13.27626    16.148776    14.696297    3150.8177 
  144000     296.4846   -1392.4585   -1223.6596   -1392.4585     336.2616    10748.481            0            0   -12477.201   -8.5801789     1789.486    13.217939    16.085651    14.641821    3113.1314 
  144500    307.32141   -1371.9607   -1196.9919   -1371.9607    294.79642    10810.421            0            0   -12477.178   -8.3023264   -985.09894     13.14122     16.39969    14.928724    3217.3181 
  145000    308.31529   -1391.3952   -1215.8606   -1391.3952    322.76222    10762.761            0            0   -12476.918   -8.4631335    844.14183    13.208333    16.150914    14.795086    3156.1861 
  145500     307.6083   -1362.9529   -1187.8208   -1362.9529     296.4708    10816.661            0            0   -12476.084   -8.3291427   -834.45826    13.738523    16.127418    14.474001    3206.9597 
  146000    278.32962   -1390.5205   -1232.0578   -1390.5205    299.81018     10786.29            0            0    -12476.62   -8.3565915   -1402.9785    13.391919    16.165398    14.765067    3196.4258 
  146500    291.09597   -1389.1547   -1223.4236   -1389.1547    361.42622    10726.796            0            0   -12477.377   -8.5581683    3719.3277    13.073595    16.170906    14.763305    3121.1381 
  147000    323.75149   -1377.8317   -1193.5087   -1377.8317    319.61893    10778.805            0            0   -12476.256   -8.4096212    800.05356    13.162865    16.298319    14.805536    3176.2697 
  147500    304.99773   -1379.2335   -1205.5878   -1379.2335    302.78384      10794.2            0            0   -12476.217    -8.384928   -535.32206    13.529356    15.993387    14.722341    3185.6236 
  148000    286.52611   -1390.4077   -1227.2785   -1390.4077    299.62238     10785.72            0            0    -12475.75   -8.3674438   -1363.9754    13.548892     16.29419    14.459872    3192.2802 
  148500    302.03107   -1371.0934   -1199.1366   -1371.0934    287.97394    10817.537            0            0   -12476.605   -8.2680387   -1500.0003    13.290993    16.243321    14.964391    3230.6604 
  149000    275.80871   -1376.3936   -1219.3662   -1376.3936    326.95177    10772.853            0            0   -12476.199   -8.4571227    1459.9892    13.068602    16.450488    14.691402    3158.4294 
  149500    310.26122   -1402.0676   -1225.4251   -1402.0676    333.41347    10741.195            0            0   -12476.676   -8.4176562    863.21747    13.283912    15.919102    15.005762    3173.2378 
  150000    304.92233   -1395.6074   -1222.0045   -1395.6074    331.07938    10750.365            0            0   -12477.052   -8.4647103    802.24759    13.537623    16.299278    14.301149    3155.5982 
  150500    308.20187   -1386.9226   -1211.4525   -1386.9226    325.53178    10764.241            0            0   -12476.695   -8.4056325    720.97688    13.322529    16.094854     14.82005    3177.7769 
  151000    294.21575   -1401.5889   -1234.0816   -1401.5889    315.90264    10759.714            0            0   -12477.206   -8.4312397   -194.42301    13.103715    16.325268    14.809746    3168.1254 
  151500    309.67793   -1373.1469   -1196.8365   -1373.1469     313.8192    10788.268            0            0   -12475.234   -8.3599693    366.59803    13.314674    16.294532    14.727081    3195.1343 
  152000    349.34285   -1374.6079   -1175.7149   -1374.6079    311.08648     10790.43            0            0   -12476.125   -8.3938207    327.99732    13.389631    16.090414    14.770605    3182.2487 
  152500    333.13101   -1372.7698   -1183.1067   -1372.7698    314.39337    10789.306            0            0   -12476.469   -8.4935285    1088.5515    13.251561    16.350855    14.514369    3144.8914 
  153000    291.82314   -1402.0575   -1235.9124   -1402.0575    309.55296    10765.039            0            0   -12476.649   -8.3568654   -677.67526    13.090413    16.173155    15.097405     3196.321 
  153500    292.68331   -1359.8817    -1193.247   -1359.8817    306.56399    10810.347            0            0   -12476.793   -8.3446486     177.7279    13.247073    16.559952    14.591729    3201.0005 
  154000     310.8285   -1361.6348   -1184.6693   -1361.6348      292.581    10822.791            0            0   -12477.007   -8.1815921   -1235.0591    13.658058     15.93767    14.998305    3264.7955 
  154500    293.95485   -1395.0773   -1227.7186   -1395.0773    301.55626    10780.576            0            0    -12477.21   -8.4108804   -899.40375    13.287795    16.564214    14.428747    3175.7942 
  155000    324.12458    -1355.974   -1171.4387    -1355.974    300.44443    10819.389            0            0   -12475.807   -8.3196457   -120.87322    13.241916    16.174402    14.990285    3210.6205 
  155500    307.05336   -1379.3509   -1204.5347   -1379.3509    266.04552     10831.73            0            0   -12477.126   -8.2339109   -3261.9168    13.337286    16.391651    14.838755    3244.0507 
  156000    292.42084   -1365.7185   -1199.2331   -1365.7185    298.11403    10812.333            0            0   -12476.165   -8.3231204   -708.20307    13.506664    16.031736     14.82105    3209.2801 
  156500    342.58277   -1355.3272   -1160.2829   -1355.3272    274.32418    10846.661            0            0   -12476.312   -8.2020937   -2026.0993    13.443533    16.370266    14.797895    3256.6349 
  157000    306.55178   -1395.8649   -1221.3343   -1395.8649    300.86123    10780.132            0            0   -12476.858   -8.3295726   -1008.8716    13.254955    16.343615    14.802829    3206.7942 
  157500    292.08491   -1378.1958   -1211.9018   -1378.1958    317.89061    10780.457            0            0   -12476.544   -8.4808256    660.66349    13.182761     16.04598      14.8896    3149.6019 
  158000    286.76513   -1380.1391   -1216.8737   -1380.1391    299.74007    10796.468            0            0   -12476.348   -8.4125149   -515.56486    13.307322    16.334462    14.607384    3175.1771 
  158500    270.16795   -1379.2086   -1225.3926   -1379.2086    301.71982    10795.877            0            0   -12476.805   -8.3504311   -876.70106    13.344266     16.05265    14.932876    3198.7839 
  159000    316.87171   -1379.1961     -1198.79   -1379.1961    297.98909    10798.574            0            0    -12475.76   -8.3602399   -532.61222    13.207581    16.506184    14.655651    3195.0309 
  159500    295.34863   -1395.7727   -1227.6205   -1395.7727    362.93994    10718.657            0            0    -12477.37   -8.6146292    3478.3382      13.2247    15.778889    14.859184    3100.6819 
  160000    289.30525   -1377.5946   -1212.8831   -1377.5946     299.8948    10798.778            0            0   -12476.268    -8.350522   -750.18635    13.555919    16.348583    14.433481    3198.7491 
  160500    272.76826    -1369.926   -1214.6295    -1369.926    322.27327    10783.894            0            0   -12476.094   -8.4659971    1081.9246    13.292807    16.031572    14.805494    3155.1186 
  161000    288.74263   -1391.0842    -1226.693   -1391.0842    270.53989    10815.267            0            0   -12476.891   -8.2728096   -3250.2439    13.267465    16.403346    14.836121    3228.7972 
  161500    309.42718    -1396.535   -1220.3674    -1396.535    310.12387    10770.956            0            0   -12477.615    -8.424346   -261.73115    13.255864    16.118071    14.840089    3170.7179 
  162000    323.47845   -1393.5212   -1209.3537   -1393.5212    297.31835    10786.021            0            0   -12476.861    -8.491823    -1007.349    13.332317    15.980863     14.76342     3145.523 
  162500    289.79679   -1390.6579   -1225.6665   -1390.6579    299.48356    10786.588            0            0    -12476.73   -8.4008609   -854.66206    13.285715     16.34992    14.637585    3179.5819 
  163000    324.28203   -1364.7458   -1180.1208   -1364.7458    317.28205    10794.824            0            0   -12476.852   -8.4356173    1024.9147    13.217513    15.906052    15.061381    3166.4813 
  163500    300.19495   -1377.7986   -1206.8872   -1377.7986    300.70766    10798.013            0            0   -12476.519   -8.3039444   -505.52499    13.387763     16.61191    14.463779    3216.6912 
  164000     297.9191   -1379.6342   -1210.0185   -1379.6342    339.17999     10757.97            0            0   -12476.784   -8.4939004    1878.6583    13.441583    15.478674    15.114802    3144.7537 
  164500    306.58267   -1390.5009   -1215.9528   -1390.5009    318.84558    10766.722            0            0   -12476.069   -8.3283844    42.399307    13.290602    16.392252    14.721421    3207.2517 
  165000    297.66068   -1400.4866    -1231.018   -1400.4866    318.53225    10758.361            0            0    -12477.38     -8.36244   -100.30368    13.200932     16.13413    14.997216    3194.1903 
  165500    298.04362   -1363.5857   -1193.8992   -1363.5857    324.80869    10787.551            0            0   -12475.946   -8.5219177    1990.1331    13.227734    16.373963    14.471622    3134.4148 
  166000    325.70094   -1375.3513   -1189.9184   -1375.3513    301.36298    10799.767            0            0   -12476.481   -8.2328539   -704.09561    13.575093     16.00126    14.936416    3244.4672 
  166500    328.29222   -1374.5071    -1187.599   -1374.5071    312.15357    10790.161            0            0   -12476.822   -8.3213898    312.32971    13.280166    16.386721    14.750352    3209.9476 
  167000    310.56407   -1361.4179    -1184.603   -1361.4179    313.77016    10800.498            0            0   -12475.686   -8.4255458    955.02778    13.139943    16.331668    14.773103    3170.2664 
  167500    296.19199   -1382.1584    -1213.526   -1382.1584    302.91793    10790.806            0            0   -12475.882   -8.2734213     -976.987    13.620568    16.075122    14.745489    3228.5585 
  168000    305.88571   -1358.3107   -1184.1594   -1358.3107    305.73229    10812.161            0            0   -12476.204   -8.3769002    158.26783    13.385861    16.351051    14.568622    3188.6765 
  168500    296.17548   -1383.9768   -1215.3539   -1383.9768    320.09941    10772.647            0            0   -12476.723   -8.3932813    445.61769    13.229811    16.090159    14.950235    3182.4532 
  169000    305.80233   -1382.2694   -1208.1655   -1382.2694    308.10664    10786.175            0            0   -12476.551   -8.3910688   -172.26886    13.139327    16.625023    14.572738    3183.2923 
  169500    295.83653   -1382.4077   -1213.9777   -1382.4077    344.31456    10750.377            0            0   -12477.099     -8.47026    2282.0142    13.380272    15.739167    14.974432    3153.5307 
  170000    302.91595    -1376.769   -1204.3084    -1376.769    307.62719    10792.058            0            0   -12476.454   -8.3247798   -262.26781    13.306601    16.488972    14.623803    3208.6404 
  170500    294.68789   -1384.8596   -1217.0835   -1384.8596    361.95575    10729.875            0            0    -12476.69   -8.5381438    3478.9578    13.264068    15.944174    14.792841    3128.4581 
  171000     317.6887   -1379.7199   -1198.8487   -1379.7199    265.97397    10831.233            0            0   -12476.926   -8.1967014   -3135.3424    13.405649    16.557963    14.681145    3258.7773 
  171500    291.60778   -1370.6019   -1204.5795   -1370.6019    294.37602    10811.518            0            0   -12476.496   -8.3573783   -737.90734    13.285147    16.254394    14.800847    3196.1249 
  172000    300.12718   -1390.4818    -1219.609   -1390.4818    327.97864    10758.722            0            0   -12477.183    -8.465776    1081.5539    13.239527    16.107395    14.795486     3155.201 
  172500     287.2412   -1373.2916   -1209.7552   -1373.2916    339.39141    10762.748            0            0   -12475.431   -8.4965466    2408.5569    13.303985     16.49342     14.32712    3143.7743 
  173000    307.34241   -1394.3652   -1219.3845   -1394.3652     276.5389    10805.962            0            0   -12476.867   -8.3078939   -2983.0593    13.353277    15.876473    15.165648     3215.162 
  173500    282.89085   -1376.0888   -1215.0292   -1376.0888    319.02678    10781.377            0            0   -12476.493   -8.5284898    1137.9031    13.186164    16.388643    14.493063    3131.9994 
  174000    285.22521   -1372.8543   -1210.4657   -1372.8543    294.42202    10808.829            0            0   -12476.106   -8.2376427   -1332.9846    13.387562      15.9637    15.172453    3242.5811 
  174500    280.25766   -1385.8082   -1226.2477   -1385.8082    300.99426    10790.544            0            0   -12477.347   -8.4096009   -880.75514     13.24323    16.460157    14.571039    3176.2774 
  175000    269.96162   -1401.3267   -1247.6282   -1401.3267    306.38066    10769.089            0            0   -12476.796   -8.4714902   -980.52035     13.35073    16.080786    14.686615    3153.0727 
  175500       314.31   -1366.0609   -1187.1133   -1366.0609    297.61551    10813.052            0            0   -12476.729   -8.2156233   -962.20802    13.438836    16.214531    14.920633    3251.2718 
  176000    315.95475    -1385.443    -1205.559    -1385.443    322.67475    10769.007            0            0   -12477.125   -8.3776509    888.43972    13.232139    16.308114    14.775349    3188.3908 
  176500    304.90678   -1370.6202   -1197.0262   -1370.6202     333.8808    10771.421            0            0   -12475.922   -8.4247408    2146.4797    13.198013     15.99854    15.015796    3170.5693 
  177000    284.13745    -1352.862   -1191.0927    -1352.862    307.55252    10815.368            0            0   -12475.783   -8.3964115     507.3185      13.4971    16.491804     14.29195    3181.2667 
  177500    309.78378   -1370.7082   -1194.3375   -1370.7082    311.28236    10794.771            0            0   -12476.762   -8.3054583   -24.596268    13.466711    15.956749    14.966638    3216.1049 
  178000    302.87324   -1385.5526   -1213.1163   -1385.5526    299.25913    10791.471            0            0   -12476.282   -8.3905917   -783.51917    13.159758     16.41153    14.740229    3183.4733 
  178500    265.94697   -1381.4464   -1230.0336   -1381.4464    326.44356    10768.206            0            0   -12476.096   -8.3908377    861.45537    13.135215    16.269086    14.896633      3183.38 
  179000    318.09118   -1390.3559   -1209.2555   -1390.3559    317.49418    10768.162            0            0   -12476.012   -8.4062981    339.45657    13.254237    16.277173     14.72839    3177.5253 
  179500     312.0666   -1348.6119   -1170.9415   -1348.6119    317.37127    10810.593            0            0   -12476.576   -8.4174074    1233.2681     13.45873    16.089062    14.654825    3173.3316 
  180000    312.59766    -1379.355   -1201.3823    -1379.355    303.67397    10793.046            0            0   -12476.075   -8.3991079   -691.75195    13.398767    16.058189    14.780844    3180.2455 
  180500    301.85288   -1379.5883    -1207.733   -1379.5883    306.68106     10791.04            0            0    -12477.31   -8.4073334    28.947237    13.051576    16.642731    14.626755     3177.134 
  181000    286.39056   -1376.7801    -1213.728   -1376.7801    285.81645    10814.457            0            0   -12477.054   -8.4578039    -1594.221    13.108553    15.966123    15.089748     3158.175 
  181500    304.46069   -1369.0815   -1195.7415   -1369.0815    311.42554    10795.948            0            0   -12476.455   -8.5154351    567.36513    13.296879    16.318748    14.456075    3136.8009 
  182000     294.0389   -1373.1343   -1205.7277   -1373.1343    293.60713    10809.953            0            0   -12476.695   -8.2820541   -1299.9049    13.378016    16.099425    14.974545    3225.1932 
  182500    294.14544   -1372.8663   -1205.3991   -1372.8663    302.79334    10801.512            0            0   -12477.171   -8.4808834   -315.85145    13.236019    16.242868     14.64983    3149.5805 
  183000    304.56266   -1377.2857   -1203.8876   -1377.2857     306.7806    10792.364            0            0    -12476.43   -8.4505369    299.97581    13.120685    16.312882     14.76802    3160.8909 
  183500    319.58242   -1373.0905   -1191.1411   -1373.0905    304.92999    10798.645            0            0   -12476.666   -8.4488966   -137.35639    13.262798    16.040068    14.861151    3161.5045 
  184000    309.05611    -1369.464   -1193.5077    -1369.464    307.50148    10799.908            0            0   -12476.874   -8.4650375    368.26101     13.32702    16.318672     14.50932    3155.4763 
  184500    298.51692   -1382.1109   -1212.1548   -1382.1109     348.9752    10745.316            0            0   -12476.402   -8.5264568    2732.9612    13.190997    15.712542    15.114756    3132.7462 
  185000    267.57402   -1376.3488   -1224.0096   -1376.3488    307.27541    10791.455            0            0   -12475.079   -8.5047762    299.05925    13.032073    16.712657    14.420221    3140.7322 
[...]
  456000    294.20382   -1374.6429   -1207.1425   -1374.6429    270.68505    10831.559            0            0   -12476.887   -8.2103811   -2745.7247     13.15809    16.287871    15.180054    3253.3477 
  456500    297.20953   -1375.9481   -1206.7364   -1375.9481    320.40983    10780.141            0            0   -12476.499   -8.4277229    839.51364    13.190545    16.312795     14.72965    3169.4474 
  457000    325.28909   -1361.8378   -1176.6395   -1361.8378    325.22437    10789.301            0            0   -12476.364   -8.4512941    1616.3772    13.411002    15.926023    14.797967    3160.6076 
  457500    322.17898   -1398.1595   -1214.7318   -1398.1595    325.82484    10753.311            0            0   -12477.295   -8.3888039    717.12172    13.415902    16.537174    14.352006    3184.1518 
  458000    341.96409   -1381.2095   -1186.5174   -1381.2095    356.01577    10739.413            0            0   -12476.639   -8.5525164    3284.4831    13.120659    15.948785    14.925078    3123.2006 
  458500    273.39535   -1386.9801   -1231.3266   -1386.9801    290.80551    10799.966            0            0   -12477.751   -8.4263618   -1495.7743    13.200105    16.314403     14.71991    3169.9594 
  459000    302.50585   -1368.3562   -1196.1291   -1368.3562    312.88591    10794.738            0            0    -12475.98   -8.2826055    277.35811    13.440926    16.266528    14.750365    3224.9785 
  459500     322.6054   -1361.7631   -1178.0926   -1361.7631    329.36535    10785.653            0            0   -12476.781   -8.4886504    2082.5438     13.39077     16.02482    14.664135    3146.6987 
  460000    292.10563   -1384.8414   -1218.5355   -1384.8414     295.8582    10795.808            0            0   -12476.508    -8.374548   -949.78106    13.212084    16.346411    14.768578    3189.5721 
  460500     315.8313   -1364.0898   -1184.2761   -1364.0898    334.04721    10779.015            0            0   -12477.152   -8.4835223    2567.1859     13.06184    16.149549    14.926323    3148.6008 
  461000    317.10947    -1375.797   -1195.2556    -1375.797    270.06637    10831.219            0            0   -12477.083   -8.2381974   -2681.2809    13.465544    16.481916     14.60932    3242.3628 
  461500    305.26323   -1385.5462   -1211.7492   -1385.5462    297.30377    10792.978            0            0   -12475.828   -8.3843074   -1194.4706    13.599438    15.933944    14.702202    3185.8594 
  462000    288.16198   -1402.0445   -1237.9839   -1402.0445    322.41422    10752.437            0            0   -12476.896   -8.4820021    494.07005    13.274179    16.301393    14.553352    3149.1651 
  462500    339.08752   -1370.2996   -1177.2453   -1370.2996     300.8662    10805.496            0            0   -12476.662   -8.3894632   -25.646223    13.113009    16.119011    15.063257    3183.9015 
  463000    308.79865   -1366.3399   -1190.5301   -1366.3399    332.76876    10777.513            0            0   -12476.621   -8.4515867    2113.9151    13.115754      16.3774    14.713546    3160.4982 
  463500    332.49651   -1376.3409   -1187.0391   -1376.3409    347.39189    10752.834            0            0   -12476.567   -8.5973949    2827.6578    13.410688    15.793594     14.66881    3106.8975 
  464000    282.28949    -1371.313   -1210.5958    -1371.313    311.08079    10793.369            0            0   -12475.763   -8.3083934   -150.32871    13.300927    16.386374    14.750678    3214.9687 
  464500    307.27398   -1376.0972   -1201.1555   -1376.0972    327.32367    10772.628            0            0   -12476.049   -8.4642189    1337.7442    13.099954    16.064028     14.99625    3155.7814 
  465000    307.66572   -1365.9189   -1190.7541   -1365.9189    325.96178    10783.792            0            0   -12475.673   -8.4540966    1679.7125    13.127564    16.449219     14.63178    3159.5599 
  465500    316.21976   -1369.7816   -1189.7467   -1369.7816    331.04822    10775.401            0            0   -12476.231   -8.4144491    1635.9597    13.443891    15.943912    14.809767    3174.4472 
  466000     287.2623   -1380.5618   -1217.0134   -1380.5618    301.92647    10794.489            0            0   -12476.977   -8.3214319    -1072.289    13.388743    16.278906    14.727558    3209.9313 
  466500    312.61924   -1376.5355   -1198.5505   -1376.5355    334.18539    10765.577            0            0   -12476.298   -8.4034201    1955.8883    13.231585    16.230498      14.8011    3178.6135 
  467000    326.03197   -1388.4356   -1202.8143   -1388.4356    296.30999    10792.313            0            0   -12477.058   -8.2455929   -1478.4878    13.354149    16.143017    15.026955    3239.4547 
  467500    294.59472   -1372.9315   -1205.2085   -1372.9315    291.45571        10812            0            0   -12476.388   -8.3868231    -1077.525    13.234652    16.605062    14.492499    3184.9038 
  468000    313.22034   -1382.1025   -1203.7753   -1382.1025    345.80252    10749.216            0            0   -12477.121   -8.5534322    2158.6716    13.385223    15.462843    15.088234    3122.8663 
  468500    352.35662    -1393.235   -1192.6261    -1393.235    288.77447    10794.991            0            0       -12477   -8.2779705   -1767.8016    13.324074    16.610671    14.579603    3226.7842 
  469000    303.57242   -1377.1007   -1204.2664   -1377.1007    320.35007    10779.083            0            0   -12476.534   -8.3758074    612.62698    13.313194    16.085952    14.891487    3189.0925 
  469500    303.95196   -1391.9157   -1218.8653   -1391.9157    333.79061    10750.709            0            0   -12476.415   -8.5382636    1774.9953    13.159257    16.212706     14.66349    3128.4142 
  470000     309.6757   -1372.3954   -1196.0863   -1372.3954    274.63275    10829.328            0            0   -12476.357   -8.2692114    -2435.132    13.227178    16.210491    15.064903    3230.2022 
  470500    301.66155   -1377.3643   -1205.6179   -1377.3643    328.24506    10771.773            0            0   -12477.383   -8.4785318    1502.8385    13.307324    16.012415    14.785145     3150.454 
  471000    298.56507   -1353.0901   -1183.1067   -1353.0901    323.51957    10797.672            0            0   -12474.282   -8.5363688    2161.9326    13.271805    16.276881    14.485032    3129.1086 
  471500    295.76225   -1399.6204   -1231.2327   -1399.6204    282.76832    10794.776            0            0   -12477.164   -8.2753621   -2603.2015    13.324648    16.012416    15.128441    3227.8013 
  472000    290.26803   -1383.5635   -1218.3039   -1383.5635    314.32391    10778.677            0            0   -12476.565   -8.4217074    339.81196    13.116547    16.646884    14.525837    3171.7113 
  472500    302.04739   -1367.5297   -1195.5636   -1367.5297    316.87043     10792.13            0            0   -12476.531    -8.383286    365.19834     13.31464    15.823171    15.123648    3186.2476 
  473000    268.02965   -1394.7484   -1242.1498   -1394.7484    309.66914    10772.241            0            0   -12476.659   -8.4054478   -450.02585    13.331022    16.390493    14.543786    3177.8467 
  473500    304.15637   -1378.6806   -1205.5139   -1378.6806    297.73426    10800.388            0            0   -12476.803   -8.3742643   -969.08672    13.355556    16.048588    14.881555    3189.6802 
  474000    291.09317   -1371.3878   -1205.6584   -1371.3878    327.60971    10778.144            0            0   -12477.141   -8.4679098     1627.948    13.082312    16.416004      14.6881    3154.4059 
  474500    286.33514   -1377.1135    -1214.093   -1377.1135     299.6259    10800.185            0            0   -12476.925   -8.4062976   -712.53415    13.150647    16.251442    14.867914    3177.5255 
  475000    307.60736   -1389.2114   -1214.0798   -1389.2114    305.81283    10781.607            0            0   -12476.631   -8.3626172   -734.84888    13.346714    16.081346    14.881779    3194.1226 
  475500    310.63101   -1377.2464   -1200.3934   -1377.2464    300.14177    10799.411            0            0     -12476.8   -8.3974353   -321.81875    13.342976    16.547627    14.406508    3180.8789 
  476000    279.19368   -1399.9029   -1240.9482   -1399.9029    344.26992    10732.902            0            0   -12477.075   -8.4302911    1474.6244    13.291003    15.808561    15.079993    3168.4819 
  476500    302.58293     -1365.22    -1192.949     -1365.22    293.47714    10816.603            0            0     -12475.3   -8.4077174   -782.22937    13.212619    16.417988    14.645589    3176.9889 
  477000    288.00876   -1378.1015   -1214.1281   -1378.1015    305.23418    10793.401            0            0   -12476.736   -8.4304127   -233.94776    13.347542    16.007151    14.829607    3168.4362 
  477500    268.36649   -1367.4115   -1214.6212   -1367.4115    286.83176     10822.52            0            0   -12476.763   -8.3764336   -1306.0009    13.345298    16.424891    14.548019    3188.8541 
  478000    304.23101   -1377.7087   -1204.4994   -1377.7087    340.05249    10758.507            0            0   -12476.268   -8.6195134    2313.3241    13.148292     15.70824    15.004246    3098.9249 
  478500     301.5036   -1378.7903   -1207.1339   -1378.7903    274.57084    10823.573            0            0   -12476.934   -8.3784916   -2288.4001    13.219506    16.435638    14.673245    3188.0708 
  479000    303.47188   -1379.5175   -1206.7404   -1379.5175      287.092    10810.494            0            0   -12477.103   -8.3396461    -1713.196    13.404389    16.202303    14.747637    3202.9207 
  479500    287.05345   -1377.7559   -1214.3264   -1377.7559    292.27446    10806.566            0            0   -12476.596   -8.3471112   -1624.7573     13.39623    16.231331    14.717054    3200.0562 
  480000    259.88262   -1367.9287   -1219.9685   -1367.9287    239.21681    10867.593            0            0   -12474.738   -8.2043595   -4866.3525    13.324596    16.550512    14.763307    3255.7355 
  480500    296.50012   -1387.1779   -1218.3701   -1387.1779    355.55994    10733.833            0            0   -12476.571   -8.5892573    3230.4232    13.074286    15.933417    14.928332     3109.841 
  481000    336.36135   -1377.8657   -1186.3635   -1377.8657    313.09242    10785.004            0            0   -12475.962   -8.4514682    546.49848    13.275098    16.370608    14.543171    3160.5425 
  481500    321.69201    -1368.367   -1185.2166    -1368.367    306.56397    10801.976            0            0   -12476.907   -8.3691838  -0.70518813    13.472319    15.892072    14.906917    3191.6165 
  482000    280.05825   -1388.5747   -1229.1278   -1388.5747    352.20897    10736.211            0            0   -12476.994   -8.6761408    3214.2566    13.050559    16.379995     14.40205    3078.6989 
  482500    282.84842   -1362.1213   -1201.0859   -1362.1213    279.54816     10835.19            0            0    -12476.86   -8.2989733   -1956.7816    13.275104    16.089993    15.068695     3218.618 
  483000    282.32832   -1375.0516   -1214.3123   -1375.0516    274.77831    10826.564            0            0   -12476.394   -8.2346382   -2463.5043    13.318701    16.551657    14.714514    3243.7642 
  483500    314.60136   -1381.2826   -1202.1691   -1381.2826    371.83135    10723.829            0            0   -12476.943   -8.6599268    4247.5568    13.363714    15.628006    14.768923    3084.4631 
  484000     275.6896   -1371.2733   -1214.3136   -1371.2733    315.24185    10789.494            0            0   -12476.009   -8.4149662    652.79463    13.288174    16.340182    14.619053    3174.2522 
  484500     332.7759   -1373.7153   -1184.2544   -1373.7153    313.79553    10788.718            0            0   -12476.229   -8.4271457    709.24845    13.185082     16.24456    14.798663    3169.6645 
  485000    324.06409   -1362.2651   -1177.7641   -1362.2651    283.65909    10830.206            0            0    -12476.13   -8.2806763   -1582.6613    13.395174    16.055049    14.999196    3225.7299 
  485500    264.63888   -1378.3983   -1227.7302   -1378.3983    321.32231    10777.526            0            0   -12477.246   -8.5642997     1134.158    13.155304    16.419375    14.439243    3118.9036 
  486000    290.90093   -1387.5929   -1221.9729   -1387.5929    275.62473    10813.736            0            0   -12476.953   -8.2702985   -2802.2224    13.368324    16.104319    15.002142    3229.7776 
  486500    274.75761   -1376.1596   -1219.7305   -1376.1596    313.31796    10787.477            0            0   -12476.954   -8.5192405    604.55915    13.134121    16.276408    14.666732    3135.3998 
  487000    286.17922   -1390.2644   -1227.3326   -1390.2644    279.47597    10806.994            0            0   -12476.735    -8.192065    -2956.817    13.416838     16.23967    14.964873    3260.6217 
  487500    283.97225   -1395.4407   -1233.7654   -1395.4407    348.53967    10733.433            0            0   -12477.413   -8.5035584    2001.2153    13.463975     16.06125    14.525813     3141.182 
  488000    285.25139   -1372.8016   -1210.3981   -1372.8016    280.84013    10821.234            0            0   -12474.876   -8.3319825   -1888.3281    13.263047    16.346183    14.787195    3205.8666 
  488500    313.07911   -1350.5276   -1172.2808   -1350.5276    290.39301    10835.139            0            0   -12476.059   -8.3801041   -451.87204    13.219771    16.144562     14.93462    3187.4574 
  489000    315.59691   -1385.0987   -1205.4184   -1385.0987    332.24233    10759.531            0            0   -12476.872   -8.4576831    1677.2896    13.190072     16.43876    14.565526    3158.2201 
  489500    303.30452   -1360.5476   -1187.8658   -1360.5476    304.75241    10811.199            0            0   -12476.499   -8.3564131    -277.2979    13.469145     15.77426    15.044746     3196.494 
  490000    306.41759   -1366.1823   -1191.7282   -1366.1823    295.83829    10815.108            0            0   -12477.129   -8.3458491   -430.71512    13.363994    16.720234    14.323352    3200.5401 
  490500    271.46443    -1379.337   -1224.7828    -1379.337    298.90991    10797.609            0            0   -12475.856   -8.4187534   -1066.7885     13.27777    15.968915    14.963923    3172.8242 
  491000    324.17546   -1359.5939   -1175.0295   -1359.5939    306.39368    10809.769            0            0   -12475.756   -8.4048911    328.01258    13.241607    16.326186    14.700641    3178.0572 
  491500    289.91402   -1384.2354   -1219.1773   -1384.2354    313.14711    10779.997            0            0    -12477.38    -8.471385    42.014134    13.272777    16.078745     14.77493    3153.1119 
  492000    315.80384   -1391.3478   -1211.5497   -1391.3478    334.27285    10751.172            0            0   -12476.793   -8.4703046    1449.0434    13.472573    16.139668    14.502726    3153.5141 
  492500    306.46881   -1369.0563   -1194.5729   -1369.0563    293.03168    10813.596            0            0   -12475.684   -8.3348143   -1090.1104    13.336449    16.279727    14.760822    3204.7774 
  493000    293.54102   -1369.1723   -1202.0493   -1369.1723    312.90921    10794.426            0            0   -12476.507   -8.3963942    624.35149    13.112784     16.20209    14.973903    3181.2733 
  493500    253.54455   -1357.7931   -1213.4414   -1357.7931    284.42904    10833.501            0            0   -12475.723   -8.2944135   -1381.7345    13.288292    16.408994    14.769201    3220.3874 
  494000    305.80596   -1391.3058   -1217.1999   -1391.3058     334.6264    10751.127            0            0   -12477.059   -8.4344556    1089.5252    13.579979    15.691984    14.861402    3166.9174 
  494500    299.84912   -1377.3907   -1206.6762   -1377.3907    313.25655        10786            0            0   -12476.647   -8.4183141    521.85619    13.176657    16.603003    14.503632    3172.9898 
  495000    303.76229   -1377.7169   -1204.7745   -1377.7169    316.48385    10781.548            0            0   -12475.748   -8.4034118    554.28654    13.134048    16.149154     14.98614    3178.6167 
  495500    300.45256   -1359.0918   -1188.0337   -1359.0918    311.31909    10806.276            0            0   -12476.687   -8.3828918    646.29107    13.177071    16.316292    14.820388    3186.3974 
  496000    298.95847   -1376.2411   -1206.0337   -1376.2411     316.9725    10783.643            0            0   -12476.857   -8.3610975    112.87895    13.647915    16.039399     14.59406    3194.7032 
  496500    296.91275   -1369.2638    -1200.221   -1369.2638    307.05148    10799.531            0            0   -12475.846   -8.3251985   -217.46379    13.486952    16.144159    14.735673     3208.479 
  497000    252.64128   -1368.7273   -1224.8898   -1368.7273    310.54938    10796.879            0            0   -12476.156   -8.4034643    62.062295    13.109262    16.322101     14.85529    3178.5968 
  497500    297.23914   -1401.9137   -1232.6851   -1401.9137    287.31834    10787.787            0            0   -12477.019    -8.291383   -2175.5145    13.219291    16.410884    14.850007    3221.5645 
  498000    321.55041   -1377.4165   -1194.3467   -1377.4165    355.28087    10743.554            0            0   -12476.252   -8.4941532    2995.5026    13.504153    15.750399    14.784777    3144.6601 
  498500    292.19652   -1370.7879   -1204.4303   -1370.7879    297.56962    10807.675            0            0   -12476.032   -8.3930146   -797.29307      13.4443    16.303053    14.520069    3182.5543 
  499000    301.04103    -1376.073   -1204.6799    -1376.073     331.5676    10769.563            0            0   -12477.204   -8.5008815    1802.8535    13.236522     15.92931    14.902496    3142.1712 
  499500    307.68234    -1393.717   -1218.5428    -1393.717    299.17172    10783.962            0            0    -12476.85   -8.3326501   -1205.9787    13.194977    16.536724     14.69104    3205.6098 
  500000     276.2204   -1368.8565   -1211.5946   -1368.8565    345.73483    10762.168            0            0    -12476.76   -8.6149313    2989.7327    13.197213    15.765673    14.902092    3100.5732 
Loop time of 335.286 on 4 procs for 500000 steps with 288 atoms

Performance: 257.691 ns/day, 0.093 hours/ns, 1491.265 timesteps/s
95.3% CPU use with 4 MPI tasks x no OpenMP threads

MPI task timing breakdown:
Section |  min time  |  avg time  |  max time  |%varavg| %total
---------------------------------------------------------------
Pair    | 190.67     | 197.14     | 203.12     |  34.4 | 58.80
Bond    | 0.070742   | 0.072291   | 0.075715   |   0.8 |  0.02
Kspace  | 61.838     | 67.901     | 74.531     |  60.1 | 20.25
Neigh   | 4.7504     | 4.7556     | 4.7622     |   0.2 |  1.42
Comm    | 21.904     | 22.082     | 22.2       |   2.4 |  6.59
Output  | 0.66084    | 0.66209    | 0.66519    |   0.2 |  0.20
Modify  | 39.684     | 40.127     | 40.402     |   4.3 | 11.97
Other   |            | 2.545      |            |       |  0.76

Nlocal:    72 ave 73 max 71 min
Histogram: 1 0 0 0 0 2 0 0 0 1
Nghost:    2895 ave 2898 max 2892 min
Histogram: 1 1 0 0 0 0 0 0 1 1
Neighs:    17417.5 ave 17548 max 17325 min
Histogram: 2 0 0 0 0 1 0 0 0 1

Total # of neighbors = 69670
Ave neighs/atom = 241.91
Ave special neighs/atom = 2
Neighbor list builds = 13696
Dangerous builds = 73

unfix		1
unfix		2
unfix		3

write_data	data.final
PPPM initialization ...
  extracting TIP4P info from pair style
  using 12-bit tables for long-range coulomb (../kspace.cpp:323)
  G vector (1/distance) = 0.332967
  grid = 10 12 12
  stencil order = 5
  estimated absolute RMS force accuracy = 0.0226762
  estimated relative force accuracy = 6.82888e-05
  using double precision KISS FFT
  3d grid and FFT values/proc = 2873 360
Total wall time: 0:05:35
