LAMMPS data file via write_data, version 19 Sep 2019, timestep = 500000

288 atoms
2 atom types
192 bonds
1 bond types
96 angles
1 angle types

0.0 13.2829281 xlo xhi
0.0 16.2004916 ylo yhi
0.0 14.7673886 zlo zhi

Masses

1 1.008
2 15.999

Atoms # full

193 1 2 -1.1794000000000000e+00 4.3242841213389234e+00 4.6404877703655023e+00 3.1676620761552776e+00 0 0 0
85 1 2 -1.1794000000000000e+00 4.5210705850433035e+00 5.2718408488559891e+00 7.8507810320923186e+00 0 0 0
3 1 1 5.8970000000000000e-01 2.4191165625750077e-02 2.5056182710648476e+00 4.5688965994864636e+00 0 0 0
15 1 1 5.8970000000000000e-01 4.6073906958840602e+00 2.1940919783320716e+00 5.2467781793673662e+00 0 0 0
267 1 1 5.8970000000000000e-01 5.0576524894528294e+00 2.1798046786135208e+00 7.4501386405098433e+00 0 0 0
14 1 1 5.8970000000000000e-01 4.7087289324317503e+00 3.0520124772555812e+00 4.0034973339133035e+00 0 0 0
37 1 2 -1.1794000000000000e+00 2.3492789149703177e+00 6.2601654971852749e+00 4.2484767366268983e+00 0 0 0
253 1 2 -1.1794000000000000e+00 -1.0194399857764835e-01 2.6937643909695055e+00 6.4961659201348469e+00 0 0 0
39 1 1 5.8970000000000000e-01 2.2505325271228598e+00 6.2627050242489029e+00 5.2005188795237851e+00 0 0 0
87 1 1 5.8970000000000000e-01 4.4638044145091405e+00 5.1742057312983532e+00 8.8012192322520306e+00 0 0 0
74 1 1 5.8970000000000000e-01 4.2307789787399130e-04 4.2514188477401911e+00 7.5499515298538888e+00 0 0 0
73 1 2 -1.1794000000000000e+00 -1.0425090037926110e-01 5.1087831571260960e+00 7.9628390020386650e+00 0 0 0
254 1 1 5.8970000000000000e-01 -8.8298756833193526e-01 2.2289832534317942e+00 6.7967203053340128e+00 0 0 0
181 1 2 -1.1794000000000000e+00 2.2082853161126614e-01 5.1130373923400150e+00 3.1022583396984098e+00 0 0 0
13 1 2 -1.1794000000000000e+00 4.8124834236490877e+00 2.1519607990776231e+00 4.3128107503951618e+00 0 0 0
109 1 2 -1.1794000000000000e+00 2.0911187226618750e+00 1.0365486564487130e+00 7.6801255419403089e+00 0 0 0
265 1 2 -1.1794000000000000e+00 4.3700146907285413e+00 2.6374956501760276e+00 6.9663054202062122e+00 0 0 0
110 1 1 5.8970000000000000e-01 2.2611675863408394e+00 2.1243232792972239e-01 7.2236362580037694e+00 0 0 0
145 1 2 -1.1794000000000000e+00 2.4384097189524483e+00 8.8388218428519072e-01 3.3631722553381986e+00 0 0 0
146 1 1 5.8970000000000000e-01 3.1961239907185082e+00 1.3039114340539808e+00 3.7704525261992843e+00 0 0 0
147 1 1 5.8970000000000000e-01 1.6941080811665641e+00 1.4264774812562495e+00 3.6240815800310338e+00 0 0 0
86 1 1 5.8970000000000000e-01 4.3446592222505158e+00 4.3953494169101086e+00 7.5084945994166237e+00 0 0 0
182 1 1 5.8970000000000000e-01 1.0140760884747606e+00 5.3900929655641185e+00 3.5609683839041550e+00 0 0 0
1 1 2 -1.1794000000000000e+00 1.9613582697906029e-02 2.4110382559579913e+00 3.6164557519559435e+00 0 0 0
2 1 1 5.8970000000000000e-01 -3.0483837482981335e-02 3.3082882403341283e+00 3.2864355023611358e+00 0 0 0
75 1 1 5.8970000000000000e-01 -2.7984498237560174e-01 4.9121403730605522e+00 8.8828792026466665e+00 0 0 0
195 1 1 5.8970000000000000e-01 3.6576292048535581e+00 5.2037918166082413e+00 3.5609281722889792e+00 0 0 0
217 1 2 -1.1794000000000000e+00 2.0458634497241306e+00 6.3421908197939221e+00 6.8395811995006461e+00 0 0 0
218 1 1 5.8970000000000000e-01 1.2674374962532404e+00 5.9506262953324027e+00 7.2360228782041345e+00 0 0 0
219 1 1 5.8970000000000000e-01 2.7745947541622513e+00 6.0138838858392312e+00 7.3663995648821494e+00 0 0 0
111 1 1 5.8970000000000000e-01 2.3003763143242244e+00 8.5124141423837929e-01 8.5955458228215011e+00 0 0 0
266 1 1 5.8970000000000000e-01 3.5627367757311950e+00 2.1842557645456822e+00 7.2099190556227111e+00 0 0 0
255 1 1 5.8970000000000000e-01 6.2421819262552725e-01 2.2538741930540267e+00 6.9384516960050533e+00 0 0 0
38 1 1 5.8970000000000000e-01 2.4395726611419524e+00 7.1840128831786325e+00 4.0141107622065846e+00 0 0 0
194 1 1 5.8970000000000000e-01 5.1562199259949999e+00 5.0116493939733902e+00 3.4617938575163252e+00 0 0 0
183 1 1 5.8970000000000000e-01 -4.8960579447967179e-01 5.5674019285303791e+00 3.5553190128146115e+00 0 0 0
113 1 1 5.8970000000000000e-01 2.0770696760388510e+00 -2.1866251084548169e-01 1.5029696860068261e+01 0 0 0
89 1 1 5.8970000000000000e-01 4.2444084331145016e+00 3.7359598074707967e+00 1.4909325524522719e+01 0 0 0
184 1 2 -1.1794000000000000e+00 3.5121169663766239e-01 5.0615291665301738e+00 1.0813070514511034e+01 0 0 0
78 1 1 5.8970000000000000e-01 8.3763997954430458e-02 4.9955843328767395e+00 1.5910088251918069e+01 0 0 0
41 1 1 5.8970000000000000e-01 2.4154206580939315e+00 7.5765304600999430e+00 1.0951222943311306e+01 0 0 0
18 1 1 5.8970000000000000e-01 4.5652105210310276e+00 2.4126699400559768e+00 1.2447121245147542e+01 0 0 0
40 1 2 -1.1794000000000000e+00 2.5331474618321899e+00 6.7248852221807729e+00 1.1372323326660119e+01 0 0 0
4 1 2 -1.1794000000000000e+00 2.3053112977640233e-01 2.3153331922604408e+00 1.1133819623237413e+01 0 0 0
42 1 1 5.8970000000000000e-01 2.3967175891768053e+00 6.8970720562495123e+00 1.2303930217789906e+01 0 0 0
76 1 2 -1.1794000000000000e+00 8.5134061682393458e-02 5.0086070477335518e+00 1.4953041135155150e+01 0 0 0
77 1 1 5.8970000000000000e-01 -9.3102867966495362e-02 4.1025148557297539e+00 1.4700464779833279e+01 0 0 0
5 1 1 5.8970000000000000e-01 5.3430766439837774e-01 3.2229118578088651e+00 1.1109201181744041e+01 0 0 0
88 1 2 -1.1794000000000000e+00 4.4052301649672128e+00 4.6501961461709644e+00 1.5143561194511756e+01 0 0 0
186 1 1 5.8970000000000000e-01 -3.0983493665828221e-01 5.6966996497355504e+00 1.1088870866689980e+01 0 0 0
17 1 1 5.8970000000000000e-01 4.5931071738471569e+00 3.2277079586310027e+00 1.1171667949297804e+01 0 0 0
112 1 2 -1.1794000000000000e+00 2.1000193320150298e+00 6.9307755490474499e-01 1.5320755150100398e+01 0 0 0
6 1 1 5.8970000000000000e-01 -6.8199657346979858e-02 2.1865325936004032e+00 1.2033984470463938e+01 0 0 0
196 1 2 -1.1794000000000000e+00 4.7228732407346614e+00 5.0815869096791388e+00 1.0804926885491144e+01 0 0 0
148 1 2 -1.1794000000000000e+00 2.5440581895091126e+00 9.0259435185611347e-01 1.0761920376422305e+01 0 0 0
149 1 1 5.8970000000000000e-01 3.2717069128515819e+00 1.3113070752564084e+00 1.1230845591794923e+01 0 0 0
150 1 1 5.8970000000000000e-01 1.7742643729940468e+00 1.4057575966610665e+00 1.1027749205664676e+01 0 0 0
16 1 2 -1.1794000000000000e+00 4.6829824892163625e+00 2.3331582994328448e+00 1.1500592853768461e+01 0 0 0
185 1 1 5.8970000000000000e-01 1.1623001621617726e+00 5.3675261724249737e+00 1.1219187262872158e+01 0 0 0
257 1 1 5.8970000000000000e-01 -8.1623776368829992e-01 1.7132977111503227e+00 1.4503449143682179e+01 0 0 0
268 1 2 -1.1794000000000000e+00 4.1968453280387896e+00 2.0111644601002872e+00 1.4267834281670147e+01 0 0 0
90 1 1 5.8970000000000000e-01 4.2814348486540332e+00 4.6801598744575239e+00 1.6092199220817804e+01 0 0 0
198 1 1 5.8970000000000000e-01 3.9792515901229217e+00 5.6054063179456328e+00 1.1103403087278302e+01 0 0 0
220 1 2 -1.1794000000000000e+00 2.3863731502397689e+00 6.6289246659404171e+00 1.4220021868010388e+01 0 0 0
221 1 1 5.8970000000000000e-01 1.6366444268271851e+00 6.0637724331393672e+00 1.4407160563696451e+01 0 0 0
222 1 1 5.8970000000000000e-01 3.1401588720597617e+00 6.1494641885848340e+00 1.4564099652667368e+01 0 0 0
256 1 2 -1.1794000000000000e+00 -1.1498472625862766e-01 2.3385652540364297e+00 1.4319617153668615e+01 0 0 0
269 1 1 5.8970000000000000e-01 3.4881495787018277e+00 1.5271659133726425e+00 1.4692033566262428e+01 0 0 0
258 1 1 5.8970000000000000e-01 6.8572524073240482e-01 1.8860983035243521e+00 1.4585298383692610e+01 0 0 0
114 1 1 5.8970000000000000e-01 1.8784583597215696e+00 6.5352470669318197e-01 1.6251057176908375e+01 0 0 0
270 1 1 5.8970000000000000e-01 4.9964297383901091e+00 1.6547326477899358e+00 1.4655216527196192e+01 0 0 0
197 1 1 5.8970000000000000e-01 5.4903140611231862e+00 5.5290421175418709e+00 1.1161643270612137e+01 0 0 0
7 1 2 -1.1794000000000000e+00 1.6807311119235724e-01 1.0645108780747886e+01 4.2912670641679425e+00 0 0 0
8 1 1 5.8970000000000000e-01 -1.1331759753637693e-01 1.1560168549228655e+01 4.2980673423886468e+00 0 0 0
81 1 1 5.8970000000000000e-01 1.7100843807836563e-01 1.3275191426674763e+01 8.5256285650174242e+00 0 0 0
19 1 2 -1.1794000000000000e+00 4.6716847790421374e+00 1.0820641975566677e+01 3.8595181347917435e+00 0 0 0
93 1 1 5.8970000000000000e-01 4.8156624167600848e+00 1.2995445545164365e+01 8.9046404933887775e+00 0 0 0
260 1 1 5.8970000000000000e-01 -1.4357550365338256e-02 1.0225206798200070e+01 7.3310382154405414e+00 0 0 0
43 1 2 -1.1794000000000000e+00 2.0253243846127256e+00 1.4464193348728227e+01 4.0861638958106008e+00 0 0 0
44 1 1 5.8970000000000000e-01 2.1363234397502904e+00 1.5398491321639371e+01 3.9092527997164108e+00 0 0 0
45 1 1 5.8970000000000000e-01 1.9431667649912545e+00 1.4408305084000785e+01 5.0381360600335450e+00 0 0 0
79 1 2 -1.1794000000000000e+00 1.4250784485920964e-01 1.3297563747219844e+01 7.5691630564968300e+00 0 0 0
80 1 1 5.8970000000000000e-01 4.1338240810818094e-01 1.2419541427564852e+01 7.3004234121297493e+00 0 0 0
91 1 2 -1.1794000000000000e+00 4.5588243427834811e+00 1.3179327688812137e+01 8.0011206025465231e+00 0 0 0
116 1 1 5.8970000000000000e-01 2.8038880573627645e+00 8.3189158679601292e+00 7.3291373554805004e+00 0 0 0
92 1 1 5.8970000000000000e-01 4.8087305436825858e+00 1.2392874619601235e+01 7.5158659806320269e+00 0 0 0
200 1 1 5.8970000000000000e-01 5.1540836776081793e+00 1.3790712127463346e+01 3.2779538345578714e+00 0 0 0
115 1 2 -1.1794000000000000e+00 2.9755526063802926e+00 9.2563591736367226e+00 7.4200925920211143e+00 0 0 0
271 1 2 -1.1794000000000000e+00 5.0935078676863217e+00 1.0877996406860214e+01 6.5316606740107028e+00 0 0 0
199 1 2 -1.1794000000000000e+00 4.3206782741899410e+00 1.3470767344732224e+01 2.9322302475011939e+00 0 0 0
151 1 2 -1.1794000000000000e+00 2.4416564463648993e+00 9.1646631532272345e+00 3.3112234342888867e+00 0 0 0
152 1 1 5.8970000000000000e-01 3.2403092836336223e+00 9.6839423892645247e+00 3.4060815604852794e+00 0 0 0
153 1 1 5.8970000000000000e-01 1.7318802654641106e+00 9.7803237353686381e+00 3.4947981570773661e+00 0 0 0
187 1 2 -1.1794000000000000e+00 -2.0257007614917932e-01 1.3241938419594087e+01 3.3514841373357633e+00 0 0 0
188 1 1 5.8970000000000000e-01 5.0654655062196974e-01 1.3879643596626188e+01 3.4349670075928818e+00 0 0 0
9 1 1 5.8970000000000000e-01 4.2105192234762057e-01 1.0465059819161514e+01 5.1966476203895544e+00 0 0 0
21 1 1 5.8970000000000000e-01 4.7778590700917833e+00 1.1008769166841017e+01 4.7919652317957695e+00 0 0 0
259 1 2 -1.1794000000000000e+00 7.9335194201477255e-01 1.0654038050881276e+01 7.0479317648715112e+00 0 0 0
201 1 1 5.8970000000000000e-01 3.6644294418327732e+00 1.3795449382563403e+01 3.5488932577199166e+00 0 0 0
223 1 2 -1.1794000000000000e+00 2.3025570862140863e+00 1.4802631121965296e+01 6.7052957535743341e+00 0 0 0
224 1 1 5.8970000000000000e-01 1.5241176212087910e+00 1.4337009921434390e+01 7.0112799069971006e+00 0 0 0
225 1 1 5.8970000000000000e-01 3.0341976610931587e+00 1.4240133107273422e+01 6.9597338271833911e+00 0 0 0
20 1 1 5.8970000000000000e-01 4.5069521307687692e+00 1.1674764329329022e+01 3.4597102421758841e+00 0 0 0
272 1 1 5.8970000000000000e-01 4.4007709820865708e+00 1.0329803622343652e+01 6.9005332141625457e+00 0 0 0
261 1 1 5.8970000000000000e-01 1.4576708839967565e+00 9.9659591287390228e+00 7.0895109799818279e+00 0 0 0
117 1 1 5.8970000000000000e-01 2.9433101434905899e+00 9.4158661612354777e+00 8.3633115800679434e+00 0 0 0
189 1 1 5.8970000000000000e-01 -9.4379096208772140e-01 1.3646836219284205e+01 3.8021135657604850e+00 0 0 0
82 1 2 -1.1794000000000000e+00 -5.9075140322687436e-01 1.3404733750653451e+01 1.5185007864271869e+01 0 0 0
11 1 1 5.8970000000000000e-01 6.5177956195518361e-02 1.1647846107003996e+01 1.1299974401365311e+01 0 0 0
12 1 1 5.8970000000000000e-01 3.8167648624917794e-01 1.0667942304925852e+01 1.2409828398939572e+01 0 0 0
22 1 2 -1.1794000000000000e+00 4.9218705315720976e+00 1.0666083892824274e+01 1.1278245107330960e+01 0 0 0
23 1 1 5.8970000000000000e-01 4.9478582922576386e+00 1.1592292857579995e+01 1.1037349354258101e+01 0 0 0
202 1 2 -1.1794000000000000e+00 4.9857434804446257e+00 1.3276620542729971e+01 1.0670093236747283e+01 0 0 0
46 1 2 -1.1794000000000000e+00 2.3407465922957393e+00 1.4514984732963644e+01 1.1637650992825673e+01 0 0 0
10 1 2 -1.1794000000000000e+00 3.2453421699927221e-01 1.0739758002559883e+01 1.1457090287261392e+01 0 0 0
48 1 1 5.8970000000000000e-01 2.1389586798384093e+00 1.4462907252149117e+01 1.2571823413831813e+01 0 0 0
119 1 1 5.8970000000000000e-01 2.3927190188932630e+00 8.2810281673392154e+00 1.4972434059423135e+01 0 0 0
83 1 1 5.8970000000000000e-01 -5.2774719859955388e-01 1.2490453940995168e+01 1.4908102891817144e+01 0 0 0
84 1 1 5.8970000000000000e-01 -7.2113574793930280e-01 1.3360087104585613e+01 1.6132158566873777e+01 0 0 0
190 1 2 -1.1794000000000000e+00 2.7884045462287066e-02 1.3520941470768429e+01 1.0417579608132934e+01 0 0 0
262 1 2 -1.1794000000000000e+00 1.2441637058022037e-01 1.0685014433545399e+01 1.4276018688567252e+01 0 0 0
95 1 1 5.8970000000000000e-01 4.2143201245638169e+00 1.2022818028578731e+01 1.4751080195723429e+01 0 0 0
118 1 2 -1.1794000000000000e+00 2.4054863683366907e+00 9.2090049721461664e+00 1.5207514017742096e+01 0 0 0
274 1 2 -1.1794000000000000e+00 4.4889860562887165e+00 1.0321716466681798e+01 1.4021717123737567e+01 0 0 0
96 1 1 5.8970000000000000e-01 4.0140520231190129e+00 1.3089120983385735e+01 1.5807032974609376e+01 0 0 0
154 1 2 -1.1794000000000000e+00 2.5132726973658426e+00 9.6305862059294771e+00 1.0126389012179436e+01 0 0 0
155 1 1 5.8970000000000000e-01 3.2942145784951649e+00 9.9541623283010914e+00 1.0575651835055490e+01 0 0 0
156 1 1 5.8970000000000000e-01 1.7814362013132090e+00 9.9933116865891876e+00 1.0625631607607945e+01 0 0 0
94 1 2 -1.1794000000000000e+00 3.9146452369594256e+00 1.2924341923839149e+01 1.4869457659167326e+01 0 0 0
191 1 1 5.8970000000000000e-01 7.4182430783122877e-01 1.3806092416787346e+01 1.0987968857459821e+01 0 0 0
275 1 1 5.8970000000000000e-01 3.7590291262774507e+00 9.8329141743052499e+00 1.4402091927693188e+01 0 0 0
263 1 1 5.8970000000000000e-01 -6.0406395756393749e-01 1.0071008820831459e+01 1.4370072248808507e+01 0 0 0
276 1 1 5.8970000000000000e-01 5.2278734487546128e+00 9.7138487337925454e+00 1.4054530911056522e+01 0 0 0
204 1 1 5.8970000000000000e-01 4.1190114408635718e+00 1.3544980469413204e+01 1.0975298343661560e+01 0 0 0
226 1 2 -1.1794000000000000e+00 1.7788769955674666e+00 1.4430248174888865e+01 1.4349324242925716e+01 0 0 0
227 1 1 5.8970000000000000e-01 9.6119924291564462e-01 1.4091290506503281e+01 1.4713959935662887e+01 0 0 0
228 1 1 5.8970000000000000e-01 2.4288241927785079e+00 1.3756759587540731e+01 1.4550583048303865e+01 0 0 0
120 1 1 5.8970000000000000e-01 2.3725105954492975e+00 9.2146687898489041e+00 1.6164077231757869e+01 0 0 0
24 1 1 5.8970000000000000e-01 4.7992278042110472e+00 1.0668422529364497e+01 1.2227506021321924e+01 0 0 0
264 1 1 5.8970000000000000e-01 8.3841973082615806e-01 1.0288604732720088e+01 1.4775447029325814e+01 0 0 0
47 1 1 5.8970000000000000e-01 2.2451485156214357e+00 1.5443039368906332e+01 1.1422860647066321e+01 0 0 0
192 1 1 5.8970000000000000e-01 -6.8271479280429692e-01 1.4137126881252099e+01 1.0596105496157474e+01 0 0 0
239 1 1 5.8970000000000000e-01 5.5617983736737919e+00 1.3749688360313284e+01 1.4411878300175015e+01 0 0 0
203 1 1 5.8970000000000000e-01 5.5964438830100161e+00 1.3775282441881414e+01 1.1213018203620168e+01 0 0 0
25 1 2 -1.1794000000000000e+00 8.8776134078245725e+00 2.4135857131507317e+00 4.2906636680512298e+00 0 0 0
26 1 1 5.8970000000000000e-01 8.8697052966088776e+00 3.2944626387880342e+00 3.9157964918253874e+00 0 0 0
27 1 1 5.8970000000000000e-01 8.6097867644126573e+00 2.5379552600777031e+00 5.2011443527611796e+00 0 0 0
62 1 1 5.8970000000000000e-01 1.1221474500937475e+01 7.3225633258015606e+00 3.8469838145911841e+00 0 0 0
51 1 1 5.8970000000000000e-01 6.3189989533589932e+00 5.9890839126474651e+00 4.8109717356524113e+00 0 0 0
159 1 1 5.8970000000000000e-01 6.0214023191167687e+00 8.9175557863311528e-01 3.4783692552300827e+00 0 0 0
122 1 1 5.8970000000000000e-01 6.5267213315837926e+00 2.2292962676061628e-01 7.5279824363937999e+00 0 0 0
99 1 1 5.8970000000000000e-01 8.8907442950672149e+00 5.1827195614529016e+00 8.6606061609188814e+00 0 0 0
133 1 2 -1.1794000000000000e+00 1.0955308024746110e+01 8.8957936415872263e-01 7.7602266021500226e+00 0 0 0
97 1 2 -1.1794000000000000e+00 8.7167915141605938e+00 5.3926984118556280e+00 7.7431056098915434e+00 0 0 0
98 1 1 5.8970000000000000e-01 8.5763056075189219e+00 4.5430075205942639e+00 7.3250267564369205e+00 0 0 0
229 1 2 -1.1794000000000000e+00 6.4001891883894944e+00 6.6419259257386969e+00 6.7269432523369712e+00 0 0 0
123 1 1 5.8970000000000000e-01 6.7137065445649711e+00 8.4954992861379774e-01 8.8933592871448166e+00 0 0 0
121 1 2 -1.1794000000000000e+00 6.5331960381662695e+00 1.0673701226850731e+00 7.9789547727609333e+00 0 0 0
61 1 2 -1.1794000000000000e+00 1.1364815745945414e+01 6.4121780157295873e+00 4.1061919253178889e+00 0 0 0
170 1 1 5.8970000000000000e-01 1.1739529480638041e+01 1.3060955333035325e+00 3.4251961970923603e+00 0 0 0
277 1 2 -1.1794000000000000e+00 8.6327739299873407e+00 2.5729250420808705e+00 7.1068723768464794e+00 0 0 0
157 1 2 -1.1794000000000000e+00 6.8327269350461313e+00 6.5779703123094535e-01 3.0274265429544571e+00 0 0 0
49 1 2 -1.1794000000000000e+00 6.5555170920760633e+00 6.0126237032848602e+00 3.8837927216093933e+00 0 0 0
158 1 1 5.8970000000000000e-01 7.4996957639144961e+00 1.2149270166157771e+00 3.4288572630902809e+00 0 0 0
279 1 1 5.8970000000000000e-01 9.3809926387361102e+00 2.1623348008554411e+00 7.5404741373066697e+00 0 0 0
135 1 1 5.8970000000000000e-01 1.1090065067138003e+01 9.1294975987084270e-01 8.7075317078806300e+00 0 0 0
63 1 1 5.8970000000000000e-01 1.1444571374885278e+01 6.4438809242703696e+00 5.0594810882384884e+00 0 0 0
171 1 1 5.8970000000000000e-01 1.0251687448229646e+01 1.5867954489583656e+00 3.4336784421735671e+00 0 0 0
205 1 2 -1.1794000000000000e+00 9.1052600230419145e+00 4.9717608075528288e+00 3.0861504242945026e+00 0 0 0
206 1 1 5.8970000000000000e-01 9.7750960189341072e+00 5.4224814315953793e+00 3.6005133457370277e+00 0 0 0
207 1 1 5.8970000000000000e-01 8.3064142088936066e+00 5.4774116598951217e+00 3.2366063247432577e+00 0 0 0
169 1 2 -1.1794000000000000e+00 1.0907755910357480e+01 9.9150628652667394e-01 3.0708191687282285e+00 0 0 0
278 1 1 5.8970000000000000e-01 7.8857406102285319e+00 2.0242585406712208e+00 7.3464601195385235e+00 0 0 0
231 1 1 5.8970000000000000e-01 7.1385119520828733e+00 6.2509933126211514e+00 7.1943543701954535e+00 0 0 0
241 1 2 -1.1794000000000000e+00 1.0976907355215012e+01 6.6470780889695513e+00 6.9951878086815107e+00 0 0 0
242 1 1 5.8970000000000000e-01 1.0173370209192928e+01 6.1885353540754506e+00 7.2411770559187563e+00 0 0 0
243 1 1 5.8970000000000000e-01 1.1670554154074072e+01 6.1857520115936016e+00 7.4668439925562566e+00 0 0 0
50 1 1 5.8970000000000000e-01 6.5165648785683716e+00 6.9400984563430326e+00 3.6496768337912391e+00 0 0 0
134 1 1 5.8970000000000000e-01 1.0971841530470581e+01 -4.1569125806147522e-02 7.5383625200054158e+00 0 0 0
230 1 1 5.8970000000000000e-01 5.6265479712204503e+00 6.2337366171251425e+00 7.1158974960246866e+00 0 0 0
28 1 2 -1.1794000000000000e+00 8.9922702423513705e+00 2.2894120895034362e+00 1.1443857028625512e+01 0 0 0
29 1 1 5.8970000000000000e-01 9.0242083940821196e+00 3.2066341035770334e+00 1.1171412165813125e+01 0 0 0
30 1 1 5.8970000000000000e-01 8.9403102180300955e+00 2.3245276319025456e+00 1.2398941296771904e+01 0 0 0
160 1 2 -1.1794000000000000e+00 6.7004680376689949e+00 7.5184703379988371e-01 1.0750199426527494e+01 0 0 0
137 1 1 5.8970000000000000e-01 1.0554561351684196e+01 -9.5325309664275326e-03 1.4922330243953139e+01 0 0 0
52 1 2 -1.1794000000000000e+00 7.2250546016447315e+00 6.3965578815106259e+00 1.1472030864573973e+01 0 0 0
126 1 1 5.8970000000000000e-01 6.9336241999740178e+00 7.4151700058952441e-01 1.5760369859514705e+01 0 0 0
136 1 2 -1.1794000000000000e+00 1.0590220913898154e+01 9.2797273580962636e-01 1.5113014676644562e+01 0 0 0
232 1 2 -1.1794000000000000e+00 6.5706826013370589e+00 6.1829437590209047e+00 1.4180846559163214e+01 0 0 0
100 1 2 -1.1794000000000000e+00 8.8867557922891152e+00 5.1577911530556610e+00 1.4977708787375413e+01 0 0 0
101 1 1 5.8970000000000000e-01 8.7374148607437903e+00 4.2988497817804863e+00 1.4582223196069993e+01 0 0 0
64 1 2 -1.1794000000000000e+00 1.1409702302198411e+01 6.4929514713618914e+00 1.1597274798187710e+01 0 0 0
65 1 1 5.8970000000000000e-01 1.1445434817428481e+01 7.3796656098816777e+00 1.1238163493018694e+01 0 0 0
281 1 1 5.8970000000000000e-01 8.0202569753484916e+00 1.9689957109782668e+00 1.4225318412625647e+01 0 0 0
172 1 2 -1.1794000000000000e+00 1.1094923622090857e+01 9.1582231877306874e-01 1.0292785769420398e+01 0 0 0
162 1 1 5.8970000000000000e-01 5.8877203426577118e+00 1.2033518896020865e+00 1.0978311317850229e+01 0 0 0
66 1 1 5.8970000000000000e-01 1.1227393042761904e+01 6.6184604447418494e+00 1.2528490119736286e+01 0 0 0
102 1 1 5.8970000000000000e-01 8.9442608274311937e+00 4.9826423148121082e+00 1.5916941716300576e+01 0 0 0
54 1 1 5.8970000000000000e-01 7.0030998292176454e+00 6.4976691921836220e+00 1.2397588256098427e+01 0 0 0
161 1 1 5.8970000000000000e-01 7.3935938019667384e+00 1.3562186749561289e+00 1.1016290295976459e+01 0 0 0
282 1 1 5.8970000000000000e-01 9.4251643182831337e+00 2.2672355289387847e+00 1.4704629702136849e+01 0 0 0
124 1 2 -1.1794000000000000e+00 6.8824697180539447e+00 8.0101011438089631e-01 1.4806461337319423e+01 0 0 0
233 1 1 5.8970000000000000e-01 5.8611025975455195e+00 5.5996330645293737e+00 1.4450463501833889e+01 0 0 0
174 1 1 5.8970000000000000e-01 1.0406961775549810e+01 1.4493124964618178e+00 1.0690969020224653e+01 0 0 0
208 1 2 -1.1794000000000000e+00 9.4000656532930122e+00 4.9571082643097171e+00 1.0379257718838550e+01 0 0 0
209 1 1 5.8970000000000000e-01 1.0151515912005472e+01 5.5212924778939234e+00 1.0562290276825065e+01 0 0 0
210 1 1 5.8970000000000000e-01 8.6485921189806731e+00 5.4382950430951746e+00 1.0725970317508040e+01 0 0 0
53 1 1 5.8970000000000000e-01 7.1296218643366105e+00 7.2755910242107271e+00 1.1105034910540237e+01 0 0 0
280 1 2 -1.1794000000000000e+00 8.7036943827709017e+00 2.6387616785349057e+00 1.4196868936813273e+01 0 0 0
234 1 1 5.8970000000000000e-01 7.3662187942924886e+00 5.7563966852395110e+00 1.4499623898323488e+01 0 0 0
244 1 2 -1.1794000000000000e+00 1.1240108653008672e+01 6.5787854753043096e+00 1.4306562479049525e+01 0 0 0
245 1 1 5.8970000000000000e-01 1.0454019569154671e+01 6.1542796120828367e+00 1.4650534123820536e+01 0 0 0
138 1 1 5.8970000000000000e-01 1.0740464210703571e+01 9.7526116655399497e-01 1.6057110796420776e+01 0 0 0
125 1 1 5.8970000000000000e-01 6.5354250459251437e+00 -4.7749418273338562e-02 1.4531356543889757e+01 0 0 0
246 1 1 5.8970000000000000e-01 1.1939711052923048e+01 5.9414059015992837e+00 1.4450740523530561e+01 0 0 0
173 1 1 5.8970000000000000e-01 1.1885843906860384e+01 1.4501762959393494e+00 1.0366372853630034e+01 0 0 0
31 1 2 -1.1794000000000000e+00 8.9877761369781766e+00 1.0257865332468242e+01 4.2404687673768109e+00 0 0 0
32 1 1 5.8970000000000000e-01 9.0234020165250080e+00 1.1150928442205824e+01 3.8973899426811363e+00 0 0 0
33 1 1 5.8970000000000000e-01 9.3291734319554038e+00 1.0329507607186473e+01 5.1318036990000406e+00 0 0 0
57 1 1 5.8970000000000000e-01 6.4793440810271310e+00 1.4461576145234506e+01 4.7716263207916310e+00 0 0 0
176 1 1 5.8970000000000000e-01 1.1983115816110281e+01 9.7059902313885615e+00 3.5404749794091450e+00 0 0 0
247 1 2 -1.1794000000000000e+00 1.1005422482353577e+01 1.4576926417493004e+01 6.9548041951641473e+00 0 0 0
55 1 2 -1.1794000000000000e+00 6.7386165489315788e+00 1.4371826017226251e+01 3.8546624088413273e+00 0 0 0
177 1 1 5.8970000000000000e-01 1.0503835265090146e+01 9.3906153215322110e+00 3.6098148970582788e+00 0 0 0
67 1 2 -1.1794000000000000e+00 1.0815253907063251e+01 1.4665610032601283e+01 4.0848833315324153e+00 0 0 0
103 1 2 -1.1794000000000000e+00 8.2216307536281548e+00 1.3185794512661953e+01 8.1321174684022282e+00 0 0 0
104 1 1 5.8970000000000000e-01 8.6516623374939847e+00 1.2384324710004414e+01 7.8333658689138534e+00 0 0 0
141 1 1 5.8970000000000000e-01 1.1723717978172736e+01 8.9573367249518085e+00 8.8539239053043044e+00 0 0 0
127 1 2 -1.1794000000000000e+00 7.0152490859480539e+00 9.2491875342090104e+00 7.7084344824618203e+00 0 0 0
140 1 1 5.8970000000000000e-01 1.1314114173774353e+01 8.2042338361306655e+00 7.6061027396867260e+00 0 0 0
56 1 1 5.8970000000000000e-01 6.7952942821888715e+00 1.5271436828685625e+01 3.5321815954582774e+00 0 0 0
68 1 1 5.8970000000000000e-01 1.0757039208250333e+01 1.5553213793326202e+01 3.7309341634221269e+00 0 0 0
139 1 2 -1.1794000000000000e+00 1.1784495264332545e+01 8.9848724576124681e+00 7.8991043609710827e+00 0 0 0
69 1 1 5.8970000000000000e-01 1.1036028458576016e+01 1.4789491474153417e+01 5.0079442693375285e+00 0 0 0
163 1 2 -1.1794000000000000e+00 6.5604858189860531e+00 8.9227052652606709e+00 3.1060663303944254e+00 0 0 0
164 1 1 5.8970000000000000e-01 7.3346181537069528e+00 9.3028757976093814e+00 3.5215506590873993e+00 0 0 0
285 1 1 5.8970000000000000e-01 9.9850748569174250e+00 1.0138277315947825e+01 7.4380673573467773e+00 0 0 0
175 1 2 -1.1794000000000000e+00 1.1332068396867250e+01 9.0631027879110775e+00 3.2587982706738421e+00 0 0 0
284 1 1 5.8970000000000000e-01 8.4840616965043267e+00 1.0261405750429976e+01 7.2821067945387341e+00 0 0 0
105 1 1 5.8970000000000000e-01 8.2909531667748197e+00 1.3153901788765829e+01 9.0861915014972734e+00 0 0 0
211 1 2 -1.1794000000000000e+00 8.9855754573088014e+00 1.2803800760655930e+01 3.3412117855206769e+00 0 0 0
212 1 1 5.8970000000000000e-01 9.6088576350250250e+00 1.3425350674224260e+01 3.7175641393526608e+00 0 0 0
213 1 1 5.8970000000000000e-01 8.1259354917317630e+00 1.3169321126301812e+01 3.5507052558021326e+00 0 0 0
235 1 2 -1.1794000000000000e+00 6.5497505366323105e+00 1.4874879494016270e+01 6.6157044678065802e+00 0 0 0
283 1 2 -1.1794000000000000e+00 9.3052808502497939e+00 1.0711631640500872e+01 7.0836457972057865e+00 0 0 0
237 1 1 5.8970000000000000e-01 7.3540600988794838e+00 1.4732133753578672e+01 7.1148055125433567e+00 0 0 0
249 1 1 5.8970000000000000e-01 1.1880600536942964e+01 1.4203313663292853e+01 7.0595225981084537e+00 0 0 0
248 1 1 5.8970000000000000e-01 1.0453636830012648e+01 1.4065253472804393e+01 7.5464943218190870e+00 0 0 0
129 1 1 5.8970000000000000e-01 6.8073378752802114e+00 9.2434172730124082e+00 8.6426725550515897e+00 0 0 0
236 1 1 5.8970000000000000e-01 5.8720151125012938e+00 1.4422170466922662e+01 7.1178320546114673e+00 0 0 0
128 1 1 5.8970000000000000e-01 6.7230336908688360e+00 8.3940848023409131e+00 7.3923255951214832e+00 0 0 0
165 1 1 5.8970000000000000e-01 5.8218844325577406e+00 9.3671978793647046e+00 3.5223523352893937e+00 0 0 0
273 1 1 5.8970000000000000e-01 5.9058630669844012e+00 1.0488483427963736e+01 6.8554160292106845e+00 0 0 0
34 1 2 -1.1794000000000000e+00 9.1306212299499592e+00 1.0133387291140473e+01 1.1879555641236641e+01 0 0 0
35 1 1 5.8970000000000000e-01 8.9528272798269590e+00 1.1048670716048793e+01 1.1662357853441698e+01 0 0 0
36 1 1 5.8970000000000000e-01 8.9354476727502146e+00 1.0066270420577947e+01 1.2814180573921599e+01 0 0 0
168 1 1 5.8970000000000000e-01 6.1578699682383160e+00 9.6572789164924977e+00 1.0828840320271583e+01 0 0 0
130 1 2 -1.1794000000000000e+00 6.9688926877808903e+00 8.8212648315550375e+00 1.5221610767324053e+01 0 0 0
60 1 1 5.8970000000000000e-01 7.0150552321707016e+00 1.4776503094156210e+01 1.2630741116108402e+01 0 0 0
59 1 1 5.8970000000000000e-01 7.1489367207392069e+00 1.5565245322871402e+01 1.1345508571229699e+01 0 0 0
286 1 2 -1.1794000000000000e+00 8.8752244437499499e+00 1.0664243985178832e+01 1.4603376441877401e+01 0 0 0
108 1 1 5.8970000000000000e-01 8.5573406744097831e+00 1.2994532298321944e+01 1.6223850652380275e+01 0 0 0
106 1 2 -1.1794000000000000e+00 8.5563230413617610e+00 1.3197113076758415e+01 1.5288393542671653e+01 0 0 0
107 1 1 5.8970000000000000e-01 8.6355960497964581e+00 1.2345450010182295e+01 1.4858432634849315e+01 0 0 0
58 1 2 -1.1794000000000000e+00 7.1735034251039744e+00 1.4673316068074170e+01 1.1692470320306354e+01 0 0 0
252 1 1 5.8970000000000000e-01 1.1357345422219794e+01 1.4237864614748732e+01 1.4653668235193269e+01 0 0 0
166 1 2 -1.1794000000000000e+00 6.8406496751848413e+00 9.0970999307850722e+00 1.0459426665260590e+01 0 0 0
71 1 1 5.8970000000000000e-01 1.0885094033656419e+01 1.5609916754878713e+01 1.1121979395919666e+01 0 0 0
142 1 2 -1.1794000000000000e+00 1.1033148132595791e+01 9.0429843700866677e+00 1.5339014320757707e+01 0 0 0
287 1 1 5.8970000000000000e-01 8.1959117758887068e+00 1.0065137884318034e+01 1.4913366263387175e+01 0 0 0
131 1 1 5.8970000000000000e-01 6.9142052102578813e+00 7.8718343558296899e+00 1.5111265698117110e+01 0 0 0
144 1 1 5.8970000000000000e-01 1.1343111295753982e+01 9.1198301148623884e+00 1.6241335981648565e+01 0 0 0
167 1 1 5.8970000000000000e-01 7.6605993485241308e+00 9.4822393142216406e+00 1.0768916712882657e+01 0 0 0
288 1 1 5.8970000000000000e-01 9.6962932751223541e+00 1.0267730659234315e+01 1.4895075797232474e+01 0 0 0
250 1 2 -1.1794000000000000e+00 1.0661765636132458e+01 1.4658926838423030e+01 1.4148419302300987e+01 0 0 0
132 1 1 5.8970000000000000e-01 6.7499491144148651e+00 8.9689387754154541e+00 1.6141619465341542e+01 0 0 0
180 1 1 5.8970000000000000e-01 1.0697236143464416e+01 9.6844028006727676e+00 1.1090232742822362e+01 0 0 0
214 1 2 -1.1794000000000000e+00 8.9028220217513123e+00 1.2597791363205307e+01 1.0903907795835250e+01 0 0 0
215 1 1 5.8970000000000000e-01 9.6887576294358944e+00 1.3144376267476034e+01 1.0895388226320634e+01 0 0 0
216 1 1 5.8970000000000000e-01 8.2410683303376047e+00 1.3135791403009177e+01 1.1338745699926539e+01 0 0 0