LAMMPS data file via write_data, version 19 Sep 2019, timestep = 118

864 atoms
2 atom types
576 bonds
1 bond types
288 angles
1 angle types

0.0000000000000000e+00 1.8207572400000000e+01 xlo xhi
0.0000000000000000e+00 2.3629177800000001e+01 ylo yhi
0.0000000000000000e+00 2.2213195800000001e+01 zlo zhi

Masses

1 1.00794
2 15.9994

Atoms # full

707 1 1 5.8970000000000000e-01 2.9698533064734782e+00 1.7812326236130538e+00 3.8427732543854836e+00 0 0 0
706 1 2 -1.1794000000000000e+00 3.0127380926505465e+00 1.7344073212990101e+00 2.8515686281333892e+00 0 0 0
30 1 1 5.8970000000000000e-01 5.2413421486131213e+00 3.9525659566050644e+00 2.2807755962221745e+00 0 0 0
708 1 1 5.8970000000000000e-01 2.1856633834442523e+00 2.2055754200109190e+00 2.5689683611668346e+00 0 0 0
29 1 1 5.8970000000000000e-01 4.4692753609849145e+00 2.6004225359525805e+00 2.2708565860621359e+00 0 0 0
28 1 2 -1.1794000000000000e+00 5.2978688202433917e+00 3.0266694195596533e+00 1.9259551508702557e+00 0 0 0
1 1 2 -1.1794000000000000e+00 7.1233504991920571e-01 3.0410806772670433e+00 1.9716510394531495e+00 0 0 0
3 1 1 5.8970000000000000e-01 6.7818519770921648e-01 3.9734399784534253e+00 2.3120790516911054e+00 0 0 0
597 1 1 5.8970000000000000e-01 6.7100594152454307e-01 5.7016527075027383e+00 3.8823048612737838e+00 0 0 0
2 1 1 5.8970000000000000e-01 1.8098719398364448e+01 2.6336712840869616e+00 2.3531248302068670e+00 -1 0 0
136 1 2 -1.1794000000000000e+00 5.2385741218632536e+00 5.6500885145085533e+00 2.8703196744655934e+00 0 0 0
137 1 1 5.8970000000000000e-01 5.2116900639477457e+00 5.6940072662664356e+00 3.8619284974491901e+00 0 0 0
20 1 1 5.8970000000000000e-01 6.3393803846114150e-01 3.0314565185023339e+00 1.8037361594971504e-01 0 0 0
685 1 2 -1.1794000000000000e+00 5.2511734844350046e+00 5.7498658928537800e+00 5.6563432059453209e+00 0 0 0
595 1 2 -1.1794000000000000e+00 6.9137662078496043e-01 5.6717134913975089e+00 2.8895316529199100e+00 0 0 0
668 1 1 5.8970000000000000e-01 5.2603209300617042e+00 3.0695991952233221e+00 1.4049519630663462e-01 0 0 0
188 1 1 5.8970000000000000e-01 2.9522304913429660e+00 1.6186148585069449e-02 2.3316108944614347e+00 0 1 0
494 1 1 5.8970000000000000e-01 6.7093834368599286e+00 2.1729793986197183e+00 2.6174446970292102e+00 0 0 0
493 1 2 -1.1794000000000000e+00 7.4678050685801018e+00 1.6629802283417190e+00 3.0071497248312773e+00 0 0 0
846 1 1 5.8970000000000000e-01 7.4497586528310933e+00 1.7471230942335518e+00 4.7950938594810797e+00 0 0 0
495 1 1 5.8970000000000000e-01 8.2616680626985648e+00 2.1539844437623450e+00 2.6676030608645962e+00 0 0 0
819 1 1 5.8970000000000000e-01 7.4277245195884509e+00 1.1458381722784886e-02 2.3326263343120996e+00 0 0 0
107 1 1 5.8970000000000000e-01 1.2040492972188183e+01 1.7286442585872521e+00 3.8661935425495964e+00 0 0 0
108 1 1 5.8970000000000000e-01 1.1253042904840418e+01 2.2003545280853949e+00 2.6156214302451968e+00 0 0 0
750 1 1 5.8970000000000000e-01 9.7576895805021291e+00 3.0465952286241613e+00 1.1027793600305327e+00 0 0 0
749 1 1 5.8970000000000000e-01 9.7088491601393567e+00 3.9581366399233198e+00 2.3576913896419591e+00 0 0 0
748 1 2 -1.1794000000000000e+00 9.7347563946209021e+00 3.0010483060313491e+00 2.0950175433857403e+00 0 0 0
298 1 2 -1.1794000000000000e+00 9.6495268689295006e+00 5.6740785832774767e+00 2.8800966809669384e+00 0 0 0
300 1 1 5.8970000000000000e-01 9.6936920990651370e+00 5.6755089913409069e+00 3.8726094392138561e+00 0 0 0
299 1 1 5.8970000000000000e-01 1.0490690683968452e+01 6.1337177543833228e+00 2.6219767983286881e+00 0 0 0
408 1 1 5.8970000000000000e-01 1.5819571747283867e+01 2.2564389668918090e+00 2.6319190398514358e+00 0 0 0
215 1 1 5.8970000000000000e-01 1.3548441992953713e+01 2.6062385147436236e+00 2.2969202613043813e+00 0 0 0
106 1 2 -1.1794000000000000e+00 1.2091147528793101e+01 1.7347414566080950e+00 2.8742446638722372e+00 0 0 0
216 1 1 5.8970000000000000e-01 1.4304566247141125e+01 3.9622389500815185e+00 2.3423907145464389e+00 0 0 0
214 1 2 -1.1794000000000000e+00 1.4367110970783935e+01 3.0505570833970750e+00 1.9521611152908140e+00 0 0 0
406 1 2 -1.1794000000000000e+00 1.6633012093054418e+01 1.8321213414544468e+00 3.0127411231279879e+00 0 0 0
660 1 1 5.8970000000000000e-01 1.6562764294109567e+01 1.8270615439666547e+00 4.8034061244361839e+00 0 0 0
109 1 2 -1.1794000000000000e+00 1.4264718354524506e+01 5.6059529381827282e+00 3.0348598476997228e+00 0 0 0
407 1 1 5.8970000000000000e-01 1.6571309522018687e+01 9.0122301951397432e-01 2.6716547722315109e+00 0 0 0
731 1 1 5.8970000000000000e-01 1.4265412483864150e+01 5.7040622862798855e+00 4.8103415856448830e+00 0 0 0
111 1 1 5.8970000000000000e-01 1.5046307877640986e+01 6.1130992721995190e+00 2.6889287962692481e+00 0 0 0
369 1 1 5.8970000000000000e-01 1.4318203205491495e+01 3.0563567912203142e+00 1.5921132082253886e-01 0 0 0
596 1 1 5.8970000000000000e-01 1.8057426927583432e+01 6.1330309970131207e+00 2.6365097991998581e+00 0 0 0
110 1 1 5.8970000000000000e-01 1.3486831343537581e+01 6.1126758241505819e+00 2.6814195521297930e+00 0 0 0
63 1 1 5.8970000000000000e-01 1.2016160234146087e+01 4.5561843867695490e-02 2.2750631224391138e+00 0 1 0
138 1 1 5.8970000000000000e-01 4.4190227159436590e+00 6.1435520206416765e+00 2.6041238304809493e+00 0 0 0
123 1 1 5.8970000000000000e-01 2.9553941830174297e+00 8.7614366933123993e+00 2.6074821519521838e+00 0 0 0
121 1 2 -1.1794000000000000e+00 2.9502314404648011e+00 9.7128945360091734e+00 2.8912128704577298e+00 0 0 0
122 1 1 5.8970000000000000e-01 2.9418010410131838e+00 9.6420461340575230e+00 3.8818629386629273e+00 0 0 0
44 1 1 5.8970000000000000e-01 1.4294280494696665e+00 1.0487667024121476e+01 2.3350162088514561e+00 0 0 0
218 1 1 5.8970000000000000e-01 5.9651285520782249e+00 1.0596309022030610e+01 2.2779963044698617e+00 0 0 0
217 1 2 -1.1794000000000000e+00 5.1789822842147322e+00 1.1098197107172357e+01 1.9353316212808391e+00 0 0 0
219 1 1 5.8970000000000000e-01 4.4089691275488283e+00 1.0585514117846527e+01 2.2959216922330725e+00 0 0 0
253 1 2 -1.1794000000000000e+00 2.9691626879193249e+00 7.0519019560245892e+00 2.0620958020454214e+00 0 0 0
43 1 2 -1.1794000000000000e+00 5.8925451264093975e-01 1.0900218774025921e+01 2.0039203853328154e+00 0 0 0
254 1 1 5.8970000000000000e-01 2.9071807224877313e+00 7.0203944621312635e+00 1.0713887346531428e+00 0 0 0
396 1 1 5.8970000000000000e-01 6.6522294682303862e-01 1.0959807684068817e+01 2.1606862245992031e-01 0 0 0
255 1 1 5.8970000000000000e-01 2.1487096479744090e+00 6.5695746798136314e+00 2.3446073936165854e+00 0 0 0
66 1 1 5.8970000000000000e-01 7.4162836806552077e+00 9.7015202247192551e+00 3.8464233937819725e+00 0 0 0
65 1 1 5.8970000000000000e-01 7.4381286843895680e+00 8.8061170977910148e+00 2.5754123006391634e+00 0 0 0
64 1 2 -1.1794000000000000e+00 7.4408284377482419e+00 9.7584495113129606e+00 2.8551786681543874e+00 0 0 0
415 1 2 -1.1794000000000000e+00 7.4377852841876910e+00 7.1087191838529504e+00 1.9697070286219895e+00 0 0 0
712 1 2 -1.1794000000000000e+00 7.3691912492825420e+00 9.6967509564062340e+00 5.6421019549062779e+00 0 0 0
417 1 1 5.8970000000000000e-01 8.2158848105709943e+00 6.5915756900899902e+00 2.3060656769765453e+00 0 0 0
713 1 1 5.8970000000000000e-01 8.1889200229632433e+00 1.0138743590890829e+01 5.9874341887314602e+00 0 0 0
416 1 1 5.8970000000000000e-01 6.6648366913710069e+00 6.5824512981780510e+00 2.3028494027500099e+00 0 0 0
91 1 2 -1.1794000000000000e+00 1.2073856206597153e+01 9.6189833388433943e+00 2.8993084809256544e+00 0 0 0
92 1 1 5.8970000000000000e-01 1.2021413086575276e+01 9.6549778390049035e+00 3.8905345994136655e+00 0 0 0
192 1 1 5.8970000000000000e-01 1.2023398008053045e+01 7.9044919930098141e+00 2.3670395806464257e+00 0 0 0
93 1 1 5.8970000000000000e-01 1.1256643503896154e+01 1.0110775433131479e+01 2.6222787957283105e+00 0 0 0
190 1 2 -1.1794000000000000e+00 1.2009577790842497e+01 6.9477638730142486e+00 2.1022982404315016e+00 0 0 0
774 1 1 5.8970000000000000e-01 9.7825997548982766e+00 1.0988846606899919e+01 1.0909531842001001e+00 0 0 0
772 1 2 -1.1794000000000000e+00 9.8098176187648782e+00 1.1021565141993722e+01 2.0832008395312904e+00 0 0 0
773 1 1 5.8970000000000000e-01 8.9682572944086552e+00 1.0562562509203200e+01 2.3410118313997428e+00 0 0 0
839 1 1 5.8970000000000000e-01 1.6519912095523157e+01 7.8956149248615572e+00 2.3759247295265795e+00 0 0 0
841 1 2 -1.1794000000000000e+00 1.6481411629959865e+01 9.6086453078680716e+00 2.8866399007864176e+00 0 0 0
861 1 1 5.8970000000000000e-01 1.5056391947155966e+01 1.0523043194067093e+01 2.3049490538785484e+00 0 0 0
859 1 2 -1.1794000000000000e+00 1.4279897277453381e+01 1.1040186849119753e+01 1.9637732081260020e+00 0 0 0
860 1 1 5.8970000000000000e-01 1.3504716108834788e+01 1.0527110727744057e+01 2.3130097936246949e+00 0 0 0
842 1 1 5.8970000000000000e-01 1.6523056166105530e+01 9.6454438054192728e+00 3.8783366120319145e+00 0 0 0
191 1 1 5.8970000000000000e-01 1.2031224040896829e+01 6.9927745140607671e+00 1.1102176387155824e+00 0 0 0
838 1 2 -1.1794000000000000e+00 1.6530789867664623e+01 6.9366182077703824e+00 2.1176357990036490e+00 0 0 0
840 1 1 5.8970000000000000e-01 1.6509838266385021e+01 6.9769932623321473e+00 1.1250244252000039e+00 0 0 0
843 1 1 5.8970000000000000e-01 1.7315527236818738e+01 1.0069781604755855e+01 2.6085549463914988e+00 0 0 0
523 1 2 -1.1794000000000000e+00 1.6505799680097621e+01 9.6550211725065704e+00 5.6729032535541863e+00 0 0 0
45 1 1 5.8970000000000000e-01 6.6050675029726702e-01 1.1835513383969337e+01 2.3314340728233911e+00 0 0 0
173 1 1 5.8970000000000000e-01 4.4648157662489174e+00 1.4102987808170798e+01 2.6799564442222676e+00 0 0 0
172 1 2 -1.1794000000000000e+00 5.2839980757643428e+00 1.3658869819940920e+01 3.0250535144100557e+00 0 0 0
293 1 1 5.8970000000000000e-01 2.9366667872087082e+00 1.6671360289125925e+01 2.6178246200116266e+00 0 0 0
558 1 1 5.8970000000000000e-01 2.9876233196402624e+00 1.4910575812086281e+01 1.0995450340922588e+00 0 0 0
556 1 2 -1.1794000000000000e+00 3.0096221034361408e+00 1.4958398749229900e+01 2.0914551657263445e+00 0 0 0
557 1 1 5.8970000000000000e-01 2.1973351125229827e+00 1.4451492749716797e+01 2.3550198191256180e+00 0 0 0
373 1 2 -1.1794000000000000e+00 7.5068281362166922e-01 1.3532856309019770e+01 2.8828209900063460e+00 0 0 0
200 1 1 5.8970000000000000e-01 5.1863429440707538e+00 1.3575952690464639e+01 4.8122041407539937e+00 0 0 0
174 1 1 5.8970000000000000e-01 5.2261013300920443e+00 1.2750271013140322e+01 2.6278332387160326e+00 0 0 0
374 1 1 5.8970000000000000e-01 6.8093757212375727e-01 1.3537278398657676e+01 3.8735284144149351e+00 0 0 0
292 1 2 -1.1794000000000000e+00 2.9204931373037302e+00 1.7629101480107732e+01 2.8802971952655660e+00 0 0 0
294 1 1 5.8970000000000000e-01 2.9003299414428119e+00 1.7585501999496664e+01 3.8721742179819740e+00 0 0 0
375 1 1 5.8970000000000000e-01 1.8133605885101645e+01 1.4006817309866721e+01 2.5971447201826856e+00 -1 0 0
449 1 1 5.8970000000000000e-01 7.5181432645315844e+00 1.6666676350059841e+01 2.6204097969191116e+00 0 0 0
478 1 2 -1.1794000000000000e+00 7.4883085779139211e+00 1.4995366518320267e+01 1.9802804858069252e+00 0 0 0
480 1 1 5.8970000000000000e-01 6.7099486016541441e+00 1.4508480971841609e+01 2.3597162829530962e+00 0 0 0
317 1 1 5.8970000000000000e-01 7.4870416452810007e+00 1.4885692048134695e+01 1.9168480173100155e-01 0 0 0
479 1 1 5.8970000000000000e-01 8.2607450717510797e+00 1.4496912336990190e+01 2.3563958983102471e+00 0 0 0
155 1 1 5.8970000000000000e-01 1.0508727667699256e+01 1.4072049701766497e+01 2.6903647573495415e+00 0 0 0
561 1 1 5.8970000000000000e-01 1.1983937769923344e+01 1.4906529367498848e+01 1.1170958191696994e+00 0 0 0
806 1 1 5.8970000000000000e-01 9.7214758806118606e+00 1.3649676679817819e+01 4.8177209695322833e+00 0 0 0
154 1 2 -1.1794000000000000e+00 9.6806138803946364e+00 1.3641774903549921e+01 3.0307575382354743e+00 0 0 0
156 1 1 5.8970000000000000e-01 9.7481228335041497e+00 1.2716032312083865e+01 2.6783963004660993e+00 0 0 0
179 1 1 5.8970000000000000e-01 1.5830252117772254e+01 1.4441842048177358e+01 2.3187769036678647e+00 0 0 0
180 1 1 5.8970000000000000e-01 1.6627649457284807e+01 1.5771723651933520e+01 2.3451599625434003e+00 0 0 0
178 1 2 -1.1794000000000000e+00 1.6670747044401462e+01 1.4849053752088160e+01 1.9811222121576553e+00 0 0 0
559 1 2 -1.1794000000000000e+00 1.1962678717479942e+01 1.4946707777267227e+01 2.1094947575978114e+00 0 0 0
560 1 1 5.8970000000000000e-01 1.2804161218827680e+01 1.4486642642410256e+01 2.3673030283716674e+00 0 0 0
56 1 1 5.8970000000000000e-01 1.4311731982374651e+01 1.3579462809322303e+01 3.8742544191010793e+00 0 0 0
55 1 2 -1.1794000000000000e+00 1.4313191109987850e+01 1.3669772877838767e+01 2.8850629711721392e+00 0 0 0
834 1 1 5.8970000000000000e-01 1.1988789597909527e+01 1.6651886057871231e+01 2.6691495850418119e+00 0 0 0
832 1 2 -1.1794000000000000e+00 1.1959055590012694e+01 1.7586090722641075e+01 3.0047356066927855e+00 0 0 0
57 1 1 5.8970000000000000e-01 1.4298888866785079e+01 1.2724945750328992e+01 2.5792537171290220e+00 0 0 0
724 1 2 -1.1794000000000000e+00 1.4300944006732021e+01 1.3468010380556768e+01 5.6603278461492250e+00 0 0 0
745 1 2 -1.1794000000000000e+00 1.6586509654729618e+01 1.7437306762010266e+01 3.0106623781420083e+00 0 0 0
564 1 1 5.8970000000000000e-01 1.6533005990147483e+01 1.7481565838276470e+01 4.7987953072704110e+00 0 0 0
614 1 1 5.8970000000000000e-01 1.6622786678376343e+01 1.4832271750203525e+01 1.8334181454290566e-01 0 0 0
267 1 1 5.8970000000000000e-01 5.9565483172185925e+00 2.1878882424249543e+01 2.6271345855777914e+00 0 0 0
696 1 1 5.8970000000000000e-01 1.4032383684127656e+00 2.1914162838028691e+01 2.6452292825502948e+00 0 0 0
266 1 1 5.8970000000000000e-01 4.4021656651727756e+00 2.1860507093259081e+01 2.6623185386066059e+00 0 0 0
265 1 2 -1.1794000000000000e+00 5.1934668558785120e+00 2.1372272491121159e+01 3.0115491443399471e+00 0 0 0
187 1 2 -1.1794000000000000e+00 2.9259146953910116e+00 2.2687556195506605e+01 2.0711912477364183e+00 0 0 0
228 1 1 5.8970000000000000e-01 5.2274302152098739e+00 1.9722504144640986e+01 2.3297544406454076e+00 0 0 0
249 1 1 5.8970000000000000e-01 5.2135933130610272e+00 2.1400010975592824e+01 4.8039019352257428e+00 0 0 0
189 1 1 5.8970000000000000e-01 2.9526117752687169e+00 2.2729160566915013e+01 1.0791749667211299e+00 0 0 0
345 1 1 5.8970000000000000e-01 6.2129598948665454e-01 1.8879678304669127e+01 1.0852595756827501e+00 0 0 0
226 1 2 -1.1794000000000000e+00 5.2708548032128544e+00 1.8804172817615836e+01 1.9531315395218856e+00 0 0 0
343 1 2 -1.1794000000000000e+00 5.7019414509907962e-01 1.8889833298322795e+01 2.0768897384669618e+00 0 0 0
413 1 1 5.8970000000000000e-01 6.0678147624832146e-01 2.1519718036646559e+01 4.7884058020727860e+00 0 0 0
695 1 1 5.8970000000000000e-01 5.9347243865722044e-01 2.0587339396782067e+01 2.6520442327078277e+00 0 0 0
694 1 2 -1.1794000000000000e+00 5.6115991821099109e-01 2.1519760387369622e+01 2.9926382626029726e+00 0 0 0
602 1 1 5.8970000000000000e-01 5.2035605530067102e+00 1.8859141208865609e+01 1.6214153418801766e-01 0 0 0
344 1 1 5.8970000000000000e-01 1.4106512906355060e+00 1.8433026148622421e+01 2.3440767100454796e+00 0 0 0
247 1 2 -1.1794000000000000e+00 5.2501281798411750e+00 2.1389117712174851e+01 5.7964382349935253e+00 0 0 0
227 1 1 5.8970000000000000e-01 4.4355146691284117e+00 1.8390889161040747e+01 2.2956655891058100e+00 0 0 0
448 1 2 -1.1794000000000000e+00 7.5550120640728631e+00 1.7589115703993990e+01 2.9873079198055414e+00 0 0 0
308 1 1 5.8970000000000000e-01 7.4603154156854252e+00 1.7520408416678340e+01 4.7790825778111232e+00 0 0 0
817 1 2 -1.1794000000000000e+00 7.3876152656185337e+00 2.2723227965225160e+01 1.9530434317164649e+00 0 0 0
818 1 1 5.8970000000000000e-01 8.2079935142156710e+00 2.2301529450770968e+01 2.3213151991500194e+00 0 0 0
450 1 1 5.8970000000000000e-01 6.7328160272959190e+00 1.8004112539581715e+01 2.6153464488052793e+00 0 0 0
498 1 1 5.8970000000000000e-01 7.4886542046253126e+00 2.2795194336457861e+01 1.6115946195032096e-01 0 0 0
645 1 1 5.8970000000000000e-01 1.2012024951482411e+01 1.7577634345057938e+01 4.7959751772115773e+00 0 0 0
399 1 1 5.8970000000000000e-01 1.0485339895445357e+01 2.1945744406042753e+01 2.6032179297825961e+00 0 0 0
61 1 2 -1.1794000000000000e+00 1.1938177473562272e+01 2.2749655013318012e+01 1.9224689370195589e+00 0 0 0
319 1 2 -1.1794000000000000e+00 9.7601012184559846e+00 1.8933374979190617e+01 1.9423105282046504e+00 0 0 0
397 1 2 -1.1794000000000000e+00 9.6760786137223569e+00 2.1512560278064921e+01 2.9816425804330873e+00 0 0 0
398 1 1 5.8970000000000000e-01 9.7254959215676493e+00 2.0593993852588742e+01 2.6062781359155731e+00 0 0 0
591 1 1 5.8970000000000000e-01 9.6983655890904075e+00 2.1443857249703125e+01 4.7806232184750517e+00 0 0 0
320 1 1 5.8970000000000000e-01 1.0536024154350537e+01 1.8444777374353098e+01 2.3234313491035237e+00 0 0 0
321 1 1 5.8970000000000000e-01 8.9849608240446379e+00 1.8438149398818144e+01 2.3176384099009550e+00 0 0 0
389 1 1 5.8970000000000000e-01 9.7633689156079146e+00 1.8832037973097961e+01 1.4853902860769613e-01 0 0 0
746 1 1 5.8970000000000000e-01 1.7350715026284636e+01 1.7968435100111048e+01 2.6648859092903958e+00 0 0 0
747 1 1 5.8970000000000000e-01 1.5797198529668123e+01 1.7929174060857914e+01 2.6620759771258444e+00 0 0 0
833 1 1 5.8970000000000000e-01 1.2801748929889179e+01 1.7976566279469996e+01 2.6536110827418540e+00 0 0 0
119 1 1 5.8970000000000000e-01 1.4233992852357245e+01 2.1469301301381684e+01 3.8472002071157552e+00 0 0 0
120 1 1 5.8970000000000000e-01 1.5029762274652981e+01 2.1934696950704183e+01 2.5990388222521323e+00 0 0 0
118 1 2 -1.1794000000000000e+00 1.4211565119001319e+01 2.1433024144319603e+01 2.8546425176826071e+00 0 0 0
62 1 1 5.8970000000000000e-01 1.2757075089782973e+01 2.2307631022496253e+01 2.2700451881410864e+00 0 0 0
306 1 1 5.8970000000000000e-01 1.4293004009649389e+01 1.9714226513064936e+01 2.3283667152186029e+00 0 0 0
727 1 2 -1.1794000000000000e+00 1.6486478280918277e+01 2.2840682400394499e+01 2.0889803550961279e+00 0 0 0
728 1 1 5.8970000000000000e-01 1.6528768787281003e+01 2.2790515418983652e+01 1.0980742721401198e+00 0 0 0
729 1 1 5.8970000000000000e-01 1.7308879882898534e+01 2.2362267014451479e+01 2.3736515780953304e+00 0 0 0
304 1 2 -1.1794000000000000e+00 1.4317314331339029e+01 1.8754756372971880e+01 2.0740205434208390e+00 0 0 0
305 1 1 5.8970000000000000e-01 1.4343313705155960e+01 1.8789943395145002e+01 1.0819221398617795e+00 0 0 0
785 1 1 5.8970000000000000e-01 6.2971106307490399e-01 3.0664776847752173e+00 7.6017102282756985e+00 0 0 0
686 1 1 5.8970000000000000e-01 5.2148226072535184e+00 4.8302283678042714e+00 6.0302893693573223e+00 0 0 0
34 1 2 -1.1794000000000000e+00 5.2385045832399091e-01 3.0198994919328475e+00 9.3886617995225041e+00 0 0 0
83 1 1 5.8970000000000000e-01 4.4120648543803966e+00 2.6709855996299279e+00 6.3036217131353807e+00 0 0 0
112 1 2 -1.1794000000000000e+00 5.5256462632565151e-01 5.6568652527700776e+00 1.0290675856105789e+01 0 0 0
487 1 2 -1.1794000000000000e+00 2.9806050148067071e+00 1.8210580813082797e+00 5.6358629447243160e+00 0 0 0
488 1 1 5.8970000000000000e-01 2.1543379843181323e+00 2.2338927721438449e+00 5.9988175954107703e+00 0 0 0
489 1 1 5.8970000000000000e-01 2.9460852387138501e+00 8.9412051022792582e-01 5.9905190447080781e+00 0 0 0
82 1 2 -1.1794000000000000e+00 5.1792191066948625e+00 3.1691368788844541e+00 6.6903679740966009e+00 0 0 0
181 1 2 -1.1794000000000000e+00 7.1460307872117446e-01 5.7298888030458643e+00 5.6723601513078332e+00 0 0 0
274 1 2 -1.1794000000000000e+00 5.0804449653451487e+00 3.0956192223740677e+00 9.4701710986504111e+00 0 0 0
678 1 1 5.8970000000000000e-01 5.1147671210849710e+00 4.7854295244632121e+00 1.0068493969632275e+01 0 0 0
673 1 2 -1.1794000000000000e+00 2.8024877361697600e+00 1.7944015452350792e+00 1.0415713546573016e+01 0 0 0
36 1 1 5.8970000000000000e-01 1.3433659192133058e+00 2.6070976356644127e+00 9.7692228755261823e+00 0 0 0
84 1 1 5.8970000000000000e-01 5.9663477302800780e+00 2.6661213479302837e+00 6.3525185834561020e+00 0 0 0
674 1 1 5.8970000000000000e-01 3.6218540243081683e+00 2.2288124735288766e+00 1.0060827598348641e+01 0 0 0
35 1 1 5.8970000000000000e-01 5.6330848880663709e-01 3.9512304311859134e+00 9.7309404071605545e+00 0 0 0
784 1 2 -1.1794000000000000e+00 6.8916134275183460e-01 3.0993439515601016e+00 6.6111665101502632e+00 0 0 0
183 1 1 5.8970000000000000e-01 6.6566654716437423e-01 4.8038203863505542e+00 6.0272437099438152e+00 0 0 0
275 1 1 5.8970000000000000e-01 5.1310251872782651e+00 3.1049949475000380e+00 8.4782747533389653e+00 0 0 0
676 1 2 -1.1794000000000000e+00 5.0938571636511085e+00 5.7132191440655493e+00 1.0421811629622511e+01 0 0 0
675 1 1 5.8970000000000000e-01 2.8532567825558552e+00 8.7780394085275326e-01 1.0036378543968354e+01 0 0 0
786 1 1 5.8970000000000000e-01 1.8055746645232244e+01 2.6509856929602749e+00 6.3316566633313602e+00 -1 0 0
687 1 1 5.8970000000000000e-01 4.4358785232686015e+00 6.1708083386972241e+00 6.0370481822491495e+00 0 0 0
276 1 1 5.8970000000000000e-01 5.9211628962001974e+00 2.6348151236093647e+00 9.7296597539684555e+00 0 0 0
844 1 2 -1.1794000000000000e+00 7.4431127524599514e+00 1.8254687916085537e+00 5.7852210022413608e+00 0 0 0
355 1 2 -1.1794000000000000e+00 7.4277122817771479e+00 1.8267594310787487e+00 1.0262135539439337e+01 0 0 0
356 1 1 5.8970000000000000e-01 7.3999937491545280e+00 8.6874128668219108e-01 1.0002861118771065e+01 0 0 0
845 1 1 5.8970000000000000e-01 7.4463745294230668e+00 8.7801785090973761e-01 6.0819931576976787e+00 0 0 0
419 1 1 5.8970000000000000e-01 8.9479079689591661e+00 2.6187805648482647e+00 6.3511615964328518e+00 0 0 0
176 1 1 5.8970000000000000e-01 8.9443173806417917e+00 2.6347270785847550e+00 9.7307349645958254e+00 0 0 0
175 1 2 -1.1794000000000000e+00 9.7845783538598265e+00 3.0953872326234562e+00 9.4709160156629881e+00 0 0 0
703 1 2 -1.1794000000000000e+00 9.7208966580618767e+00 5.7590324089414944e+00 1.0280040975367321e+01 0 0 0
420 1 1 5.8970000000000000e-01 9.7440387127357191e+00 3.9515726955630863e+00 6.3198030065602495e+00 0 0 0
418 1 2 -1.1794000000000000e+00 9.7862117801673705e+00 3.0306237122324320e+00 6.6887605210259009e+00 0 0 0
705 1 1 5.8970000000000000e-01 9.7411928599781294e+00 4.8056908678437589e+00 1.0002329230909515e+01 0 0 0
514 1 2 -1.1794000000000000e+00 1.2051205699917311e+01 1.6857925562304257e+00 1.0262686058335369e+01 0 0 0
177 1 1 5.8970000000000000e-01 9.7569387477768217e+00 3.0640345716671855e+00 8.4781649328379594e+00 0 0 0
163 1 2 -1.1794000000000000e+00 9.7239119342965967e+00 5.6236414643614712e+00 5.6618147043863054e+00 0 0 0
803 1 1 5.8970000000000000e-01 1.1215509140430008e+01 2.1743745378828203e+00 6.0209413445055500e+00 0 0 0
516 1 1 5.8970000000000000e-01 1.1230718917513235e+01 2.1818099496982137e+00 1.0003181080018075e+01 0 0 0
165 1 1 5.8970000000000000e-01 8.9509275423498238e+00 6.1462718112866366e+00 6.0021314471205036e+00 0 0 0
329 1 1 5.8970000000000000e-01 1.1990823714445826e+01 2.3606451186187833e+01 9.7270767662173601e+00 0 0 0
171 1 1 5.8970000000000000e-01 1.1972416626857299e+01 1.0801898363283931e-02 6.3114045849698721e+00 0 1 0
652 1 2 -1.1794000000000000e+00 1.6454382661835428e+01 1.7026331753952599e+00 1.0301883450892900e+01 0 0 0
658 1 2 -1.1794000000000000e+00 1.6540642127657257e+01 1.8686217349718348e+00 5.7957493229213428e+00 0 0 0
732 1 1 5.8970000000000000e-01 1.4243314206120086e+01 4.8225873657294818e+00 6.0837563794392846e+00 0 0 0
849 1 1 5.8970000000000000e-01 1.3476394714853773e+01 2.6043375034729541e+00 9.7026499615346520e+00 0 0 0
436 1 2 -1.1794000000000000e+00 1.4184172069409364e+01 3.1138167664026479e+00 6.5977014864867822e+00 0 0 0
654 1 1 5.8970000000000000e-01 1.7274260804648918e+01 2.1772380394867685e+00 1.0002596922998601e+01 0 0 0
659 1 1 5.8970000000000000e-01 1.6525400590487056e+01 9.1106638083189284e-01 6.0581883005945496e+00 0 0 0
544 1 2 -1.1794000000000000e+00 1.4184364083356243e+01 5.7194946586391691e+00 1.0401927086016839e+01 0 0 0
545 1 1 5.8970000000000000e-01 1.4221876221366411e+01 4.7982292878256363e+00 1.0032923357015751e+01 0 0 0
802 1 2 -1.1794000000000000e+00 1.1993390080263612e+01 1.6774927054912263e+00 5.6552326240169046e+00 0 0 0
437 1 1 5.8970000000000000e-01 1.4229607304597211e+01 3.0995157760685719e+00 7.5902198155738789e+00 0 0 0
847 1 2 -1.1794000000000000e+00 1.4252739217729312e+01 3.1309226301826172e+00 9.3750189065349510e+00 0 0 0
804 1 1 5.8970000000000000e-01 1.2766172216339315e+01 2.1937824302625120e+00 6.0056987537368425e+00 0 0 0
438 1 1 5.8970000000000000e-01 1.5029761320602480e+01 2.6657341052936148e+00 6.3314235232860900e+00 0 0 0
848 1 1 5.8970000000000000e-01 1.5027973830630138e+01 2.6133858813417814e+00 9.7178177865241633e+00 0 0 0
546 1 1 5.8970000000000000e-01 1.5004433887795722e+01 6.1381832465389259e+00 1.0029574496395956e+01 0 0 0
131 1 1 5.8970000000000000e-01 1.6531693257227783e+01 1.0916907151476363e-02 9.7211641506298498e+00 0 1 0
677 1 1 5.8970000000000000e-01 5.9124813405826506e+00 6.1183385084870157e+00 1.0032639920805792e+01 0 0 0
114 1 1 5.8970000000000000e-01 1.3709720356188477e+00 6.1519911035036978e+00 1.0025487543594597e+01 0 0 0
579 1 1 5.8970000000000000e-01 5.1242179485464954e+00 1.1830297351508763e+01 6.3771001762070965e+00 0 0 0
577 1 2 -1.1794000000000000e+00 5.0968201503566144e+00 1.0898884948249881e+01 6.7209587222774481e+00 0 0 0
13 1 2 -1.1794000000000000e+00 5.4689531267065139e-01 1.0912854966723035e+01 9.3752234911041388e+00 0 0 0
651 1 1 5.8970000000000000e-01 3.6466416446905177e+00 6.5692365614607215e+00 9.7980464754996888e+00 0 0 0
11 1 1 5.8970000000000000e-01 2.1701881202225515e+00 6.5334288435029020e+00 6.3408581129167931e+00 0 0 0
650 1 1 5.8970000000000000e-01 2.9060079676737725e+00 7.0106312747304074e+00 8.5060284858294608e+00 0 0 0
578 1 1 5.8970000000000000e-01 5.9166967405680273e+00 1.0494236571394369e+01 6.3332659114638412e+00 0 0 0
552 1 1 5.8970000000000000e-01 6.4444516714817401e-01 1.1797414066957083e+01 6.3022034640232087e+00 0 0 0
15 1 1 5.8970000000000000e-01 1.3619680797124991e+00 1.0488342612843571e+01 9.7526370878489583e+00 0 0 0
580 1 2 -1.1794000000000000e+00 5.1108982840425927e+00 1.0947231987493206e+01 9.5034420695890525e+00 0 0 0
551 1 1 5.8970000000000000e-01 6.1560747533309246e-01 1.0908059810078150e+01 7.5793610185333087e+00 0 0 0
550 1 2 -1.1794000000000000e+00 6.4246829351859347e-01 1.0846627398935048e+01 6.5885538183747370e+00 0 0 0
793 1 2 -1.1794000000000000e+00 2.9154355100436433e+00 9.5319320348492038e+00 5.6672582152966138e+00 0 0 0
649 1 2 -1.1794000000000000e+00 2.8334109517242774e+00 7.0523963593261074e+00 9.4957255755180476e+00 0 0 0
794 1 1 5.8970000000000000e-01 2.1215877627060977e+00 1.0018415483089324e+01 6.0137025860209405e+00 0 0 0
256 1 2 -1.1794000000000000e+00 2.8077850701258349e+00 9.6775444667580928e+00 1.0428464663827928e+01 0 0 0
258 1 1 5.8970000000000000e-01 3.6384763960164830e+00 1.0095631825237183e+01 1.0079743139699998e+01 0 0 0
10 1 2 -1.1794000000000000e+00 2.9845761912505009e+00 6.9607359577050607e+00 6.7156387850658188e+00 0 0 0
257 1 1 5.8970000000000000e-01 2.8539691836268930e+00 8.7499047888366928e+00 1.0076092148946827e+01 0 0 0
12 1 1 5.8970000000000000e-01 2.9414937004246742e+00 7.8789996457332787e+00 6.3378891239972388e+00 0 0 0
582 1 1 5.8970000000000000e-01 5.1336483000884812e+00 1.0916618479734959e+01 8.5107256472341408e+00 0 0 0
795 1 1 5.8970000000000000e-01 3.6760269145359494e+00 1.0042455016386102e+01 6.0518023978258784e+00 0 0 0
14 1 1 5.8970000000000000e-01 6.1201194749754029e-01 1.1844060773816715e+01 9.7137985084840324e+00 0 0 0
528 1 1 5.8970000000000000e-01 8.2038385805854279e+00 6.5297514950513778e+00 9.6982712096191754e+00 0 0 0
714 1 1 5.8970000000000000e-01 7.4506280424155884e+00 8.7709820386779498e+00 5.9914678446703018e+00 0 0 0
146 1 1 5.8970000000000000e-01 6.7064807598009581e+00 6.5958974883122110e+00 6.2703239308396173e+00 0 0 0
581 1 1 5.8970000000000000e-01 5.9368640925699392e+00 1.0460018009365623e+01 9.7587528904567105e+00 0 0 0
147 1 1 5.8970000000000000e-01 7.4555625772469121e+00 7.0131750661109038e+00 7.5628299158032757e+00 0 0 0
820 1 2 -1.1794000000000000e+00 7.4137450396335698e+00 9.5674566638586729e+00 1.0273258432816988e+01 0 0 0
526 1 2 -1.1794000000000000e+00 7.3651948457538490e+00 6.9329469226516558e+00 9.3522047749887616e+00 0 0 0
145 1 2 -1.1794000000000000e+00 7.5255209322371126e+00 7.0691562726581347e+00 6.5739253992669955e+00 0 0 0
527 1 1 5.8970000000000000e-01 7.4080201575512428e+00 7.8634243785462345e+00 9.6964662760193416e+00 0 0 0
822 1 1 5.8970000000000000e-01 8.2278100490996611e+00 1.0047580285363587e+01 9.9697288448356947e+00 0 0 0
284 1 1 5.8970000000000000e-01 9.7373285846161970e+00 1.1834251099171262e+01 9.7125686669855824e+00 0 0 0
283 1 2 -1.1794000000000000e+00 9.6867315456318206e+00 1.0906661267551533e+01 9.3626590179828231e+00 0 0 0
285 1 1 5.8970000000000000e-01 1.0504000624943840e+01 1.0486896155857028e+01 9.7390740207979878e+00 0 0 0
739 1 2 -1.1794000000000000e+00 9.6450285980216020e+00 1.1011338761450409e+01 6.5746925543172408e+00 0 0 0
314 1 1 5.8970000000000000e-01 1.1204010010422216e+01 6.5978954500649971e+00 9.7103266505874881e+00 0 0 0
444 1 1 5.8970000000000000e-01 1.1993145424424812e+01 8.7548923548309396e+00 1.0035707116482719e+01 0 0 0
442 1 2 -1.1794000000000000e+00 1.1957813587198922e+01 9.6746596735714174e+00 1.0409204516494352e+01 0 0 0
229 1 2 -1.1794000000000000e+00 1.1931933035778407e+01 9.6933468326775287e+00 5.6784618349180604e+00 0 0 0
230 1 1 5.8970000000000000e-01 1.1957494040381286e+01 8.7602569524171425e+00 6.0182897371671622e+00 0 0 0
741 1 1 5.8970000000000000e-01 9.6937592563218047e+00 1.0956666279838231e+01 7.5648705415478643e+00 0 0 0
391 1 2 -1.1794000000000000e+00 1.1929112594042682e+01 7.0602824612708144e+00 6.5835360525523292e+00 0 0 0
392 1 1 5.8970000000000000e-01 1.1973247685925308e+01 7.0543417767172114e+00 7.5756830700231124e+00 0 0 0
740 1 1 5.8970000000000000e-01 1.0468161238388149e+01 1.0538041931491305e+01 6.2838793078391761e+00 0 0 0