LAMMPS (19 Sep 2019)
OMP_NUM_THREADS environment is not set. Defaulting to 1 thread. (src/comm.cpp:93)
  using 1 OpenMP thread(s) per MPI task
echo both

include		in.temp
variable	temperature equal 270.0
variable	temperature2 equal 400.0

variable	tempDamp equal 100.0
include		in.pressure
variable        pressure equal 1.
variable        pressureDamp equal 1000.0 # This is 1 ps
include		in.seed
variable	seed equal 745821
units		real
atom_style	full
include		in.box
read_data       ice.data
  orthogonal box = (0 0 0) to (17.7165 24.2429 22.1364)
  2 by 2 by 2 MPI processor grid
  reading atoms ...
  864 atoms
  reading velocities ...
  864 velocities
  scanning bonds ...
  2 = max bonds/atom
  scanning angles ...
  1 = max angles/atom
  reading bonds ...
  576 bonds
  reading angles ...
  288 angles
  2 = max # of 1-2 neighbors
  1 = max # of 1-3 neighbors
  1 = max # of 1-4 neighbors
  2 = max # of special neighbors
  special bonds CPU = 0.000757588 secs
  read_data CPU = 0.00813577 secs
include 	in.setup
variable	out_freq equal 500
variable	out_freq2 equal 500

timestep	2.0

neigh_modify    delay 10 every 1

include		in.tip4p
# This is TIP4P/Ice

# create groups ###
group ox type 2
288 atoms in group ox
group hy type 1
576 atoms in group hy

# set charges - beside manually ###
set group ox charge -1.1794
  288 settings made for charge
set group hy charge 0.5897
  576 settings made for charge

# ### TIP3P Potential Parameters ###
pair_style lj/cut/tip4p/long 2 1 1 1 0.1577 8.5
pair_coeff 1 1*2 0.000 0.000
pair_coeff 2 2 0.21084 3.1668
bond_style  harmonic
bond_coeff  1 450 0.9572
angle_style harmonic
angle_coeff 1 55 104.52
kspace_style pppm/tip4p 1.0e-4 #final npt relaxation
pair_modify tail yes

thermo          ${out_freq}
thermo          500
thermo_style 	custom step temp pe etotal epair evdwl ecoul ebond eangle elong etail press lx ly lz vol

restart 	${out_freq} restart.lmp restart2.lmp
restart 	500 restart.lmp restart2.lmp


fix 		1 all shake 1e-6 200 0 b 1 a 1
  0 = # of size 2 clusters
  0 = # of size 3 clusters
  0 = # of size 4 clusters
  288 = # of frozen angles
  find clusters CPU = 0.000969145 secs
fix             2 all nph iso ${pressure} ${pressure} ${pressureDamp}
fix             2 all nph iso 1 ${pressure} ${pressureDamp}
fix             2 all nph iso 1 1 ${pressureDamp}
fix             2 all nph iso 1 1 1000
fix             3 all temp/csvr ${temperature2} ${temperature2} ${tempDamp} ${seed}
fix             3 all temp/csvr 400 ${temperature2} ${tempDamp} ${seed}
fix             3 all temp/csvr 400 400 ${tempDamp} ${seed}
fix             3 all temp/csvr 400 400 100 ${seed}
fix             3 all temp/csvr 400 400 100 745821
velocity 	all create ${temperature2} ${seed} dist gaussian
velocity 	all create 400 ${seed} dist gaussian
velocity 	all create 400 745821 dist gaussian

run             200000
PPPM initialization ...
  extracting TIP4P info from pair style
  using 12-bit tables for long-range coulomb (src/kspace.cpp:323)
  G vector (1/distance) = 0.331927
  grid = 15 18 16
  stencil order = 5
  estimated absolute RMS force accuracy = 0.0235776
  estimated relative force accuracy = 7.10033e-05
  using double precision FFTW3
  3d grid and FFT values/proc = 3360 576
Neighbor list info ...
  update every 1 steps, delay 10 steps, check yes
  max neighbors/atom: 2000, page size: 100000
  master list distance cutoff = 10.8154
  ghost atom cutoff = 10.8154
  binsize = 5.4077, bins = 4 5 5
  1 neighbor lists, perpetual/occasional/extra = 1 0 0
  (1) pair lj/cut/tip4p/long, perpetual
      attributes: half, newton on
      pair build: half/bin/newton
      stencil: half/bin/3d/newton
      bin: standard
Per MPI rank memory allocation (min/avg/max) = 8.091 | 8.14 | 8.467 Mbytes
Step Temp PotEng TotEng E_pair E_vdwl E_coul E_bond E_angle E_long E_tail Press Lx Ly Lz Volume 
       0          400   -4196.7649   -3511.1785   -4196.7649    1020.1868    32139.219            0            0   -37356.171   -25.285247    2301.8369    17.716453    24.242907    22.136433    9507.5607 
     500    396.06131   -3858.9804   -3180.1448   -3858.9804    798.54802    32692.259            0            0   -37349.787   -24.820003    -114.5391    17.826465    24.393446    22.273891    9685.7775 
    1000    409.10654   -3821.9013   -3120.7067   -3821.9013    911.61359    32614.248            0            0   -37347.763   -25.160953    2915.4152    17.745578    24.282761    22.172824    9554.5277 
    1500    408.26605   -3832.3349   -3132.5809   -3832.3349    787.91989    32730.511            0            0   -37350.766   -24.830508   -72.609318    17.823951    24.390005     22.27075    9681.6795 
    2000    381.22757   -3811.3558   -3157.9448   -3811.3558    820.39045     32714.81            0            0   -37346.556   -24.868037    724.86198     17.81498     24.37773    22.259541    9667.0688 
    2500    413.55819   -3817.8952   -3109.0707   -3817.8952    781.98664    32749.187            0            0   -37349.069   -24.881415   -27.244737    17.811787     24.37336    22.255551    9661.8712 
    3000    401.58992    -3790.775   -3102.4636    -3790.775    737.15384    32817.885            0            0   -37345.814   -24.560083   -1011.3519    17.889131    24.479196    22.352191    9788.2823 
    3500    389.03176   -3835.7917   -3169.0046   -3835.7917    805.28137    32707.441            0            0   -37348.514   -24.530271    143.56238    17.896375    24.489109    22.361242     9800.178 
    4000    410.64791   -3772.4773   -3068.6409   -3772.4773    720.34909    32856.219            0            0   -37349.045   -24.551003   -1082.1798    17.891336    24.482213    22.354946    9791.9023 
    4500    392.38757   -3773.5108    -3100.972   -3773.5108     737.2165    32833.886            0            0   -37344.613   -24.354264   -981.42544    17.939383    24.547961    22.414981    9871.0032 
    5000    386.75567   -3805.6985   -3142.8125   -3805.6985    808.73312    32732.491            0            0   -37346.923    -25.02688     722.0327     17.77721    24.326046    22.212348    9605.7127 
    5500    403.75814   -3837.7407   -3145.7131   -3837.7407    804.46208    32705.986            0            0   -37348.189    -25.25832    590.89745    17.722746    24.251519    22.144296    9517.6964 
    6000    393.21575   -3718.4956   -3044.5372   -3718.4956    751.58258    32876.867            0            0   -37346.945   -24.842246    201.89368    17.821143    24.386163    22.267241     9677.105 
    6500    395.58138   -3679.7773   -3001.7643   -3679.7773    743.34649    32923.547            0            0   -37346.671    -24.88261    616.71595    17.811502     24.37297    22.255194     9661.407 
    7000    392.90502   -3522.9195   -2849.4937   -3522.9195    638.58937     33176.07            0            0   -37337.579   -25.278716   -178.00178    17.717979    24.244994    22.138339    9510.0171 
    7500    385.05805   -3409.4512   -2749.4749   -3409.4512    586.12757    33333.783            0            0   -37329.362   -25.434151    228.58214    17.681812    24.195504    22.093149    9451.8989 
    8000    401.43634   -3381.2034   -2693.1552   -3381.2034    576.23992    33383.429            0            0   -37340.873   -26.555313    1357.1313    17.429384    23.850086    21.777744    9052.8407 
    8500    431.98153   -3349.8067   -2609.4051   -3349.8067     460.2362    33528.078            0            0   -37338.121   -26.118959   -1509.4746    17.525909     23.98217    21.898351    9204.0814 
    9000    419.65937   -3324.1834   -2604.9016   -3324.1834    486.53376    33526.187            0            0   -37336.904   -26.376789   -42.420259    17.468618    23.903773    21.826766    9114.1124 
    9500    401.89353   -3272.7405   -2583.9088   -3272.7405    452.53073    33614.468            0            0   -37339.739   -25.399908   -1046.8493    17.689754    24.206372    22.103073    9464.6414 
   10000    386.71196   -3243.8082   -2580.9971   -3243.8082    448.99734    33642.577            0            0   -37335.382   -26.830647    15.910162    17.369559    23.768223    21.702994    8959.9412 
   10500     403.1047   -3225.0978   -2534.1901   -3225.0978    444.28329    33667.963            0            0   -37337.344   -26.447572   -269.43341     17.45302    23.882429    21.807277    9089.7201 
   11000    427.67899    -3237.308   -2504.2809    -3237.308     431.9668    33663.782            0            0   -37333.057   -25.501424   -1301.7727     17.66625    24.174209    22.073705    9426.9646 
   11500    389.32485   -3286.8794     -2619.59   -3286.8794    492.94317    33562.071            0            0   -37341.893   -27.180992    653.72495    17.294609    23.665662    21.609345    8844.4536 
   12000     384.9403    -3359.544   -2699.7695    -3359.544    513.47985    33463.078            0            0   -37336.101   -27.606705    829.59803     17.20525    23.543385    21.497692    8708.0664 
   12500     415.5493   -3314.0333    -2601.796   -3314.0333    501.46604    33517.821            0            0    -37333.32   -27.152761    891.01009    17.300601    23.673861    21.616832    8853.6492 
   13000    402.41176   -3366.9554   -2677.2354   -3366.9554    437.07985    33537.716            0            0   -37341.752   -27.204762   -1254.4813     17.28957    23.658768     21.60305    8836.7259 
   13500    384.70846   -3289.8965   -2630.5194   -3289.8965    431.51243     33617.52            0            0   -37338.929   -26.674249   -1230.4584    17.403441    23.814586    21.745329    9012.4759 
   14000    376.94286   -3226.2133   -2580.1462   -3226.2133    434.78023    33678.117            0            0    -37339.11   -26.316705   -607.51603    17.481902     23.92195    21.843364    9134.9209 
   14500    388.47893   -3224.2557   -2558.4162   -3224.2557    445.35455    33664.595            0            0   -37334.205   -26.046018   -746.05029    17.542254    24.004536    21.918774     9229.857 
   15000    409.09264    -3295.887   -2594.7162    -3295.887    487.45176    33546.168            0            0   -37329.507   -26.546994    92.559871    17.431204    23.852577    21.780019    9055.6778 
   15500    370.90138   -3326.6333    -2690.921   -3326.6333    447.62117    33563.446            0            0   -37337.701   -26.490592   -1226.9177    17.443567    23.869493    21.795465    9074.9583 
   16000    396.11953   -3299.8845   -2620.9492   -3299.8845    455.61298    33584.991            0            0   -37340.489   -26.344411     -940.287    17.475771    23.913562    21.835705    9125.3141 
   16500    407.64228   -3256.7508   -2558.0659   -3256.7508    478.11142    33603.076            0            0   -37337.938   -26.757822    788.68563    17.385303    23.789766    21.722666    8984.3269 
   17000    404.31104   -3238.0603    -2545.085   -3238.0603    467.93126    33631.861            0            0   -37337.852   -26.226337    147.92197    17.501958    23.949395    21.868424    9166.3972 
   17500    386.77144   -3305.7717   -2642.8587   -3305.7717    483.86741     33550.17            0            0    -37339.81   -27.095822    391.73521    17.312711    23.690432    21.631963    8872.2544 
   18000    401.88038   -3358.3886   -2669.5794   -3358.3886    502.02572    33481.414            0            0   -37341.828   -27.694646    679.01898     17.18702    23.518439    21.474914    8680.4152 
   18500    382.56342   -3337.7707   -2682.0701   -3337.7707    514.54304    33491.191            0            0   -37343.504   -26.598802    61.886839     17.41988    23.837081    21.765869    9038.0393 
   19000    398.81667   -3301.8641    -2618.306   -3301.8641    472.96393    33564.858            0            0   -37339.687   -26.726425   -124.67496    17.392108    23.799078    21.731169    8994.8813 
   19500    384.50805    -3255.166   -2596.1323    -3255.166    504.78901    33575.881            0            0   -37335.836   -26.498933     502.2011    17.441736    23.866989    21.793179    9072.1021 
   20000    400.17047   -3299.8101   -2613.9316   -3299.8101    399.66132    33641.571            0            0   -37341.042   -26.287328   -2200.7237    17.488412    23.930858    21.851498    9145.1296 
   20500    391.39862    -3213.209   -2542.3652    -3213.209    420.25855    33701.521            0            0   -37334.989   -26.167663   -1150.6732    17.515029    23.967282    21.884757    9186.9503 
   21000    384.26597   -3285.6075   -2626.9888   -3285.6075    522.49964    33530.441            0            0   -37338.548   -27.319517    1728.1127    17.265328    23.625595    21.572759    8799.6075 
   21500     406.0483    -3248.403   -2552.4501    -3248.403    486.27752    33601.505            0            0   -37336.186   -26.179813    90.564782    17.512319    23.963573    21.881371    9182.6866 
   22000    392.50675   -3343.9594   -2671.2162   -3343.9594    462.76842    33536.708            0            0   -37343.436   -26.826158   -810.07603    17.370528    23.769549    21.704205    8961.4407 
   22500    384.69053   -3282.8121   -2623.4657   -3282.8121    440.07926    33618.059            0            0   -37340.951   -26.378008   -1041.1016    17.468348    23.903404     21.82643    9113.6912 
   23000    388.60176   -3273.9517   -2607.9016   -3273.9517    523.94418    33541.223            0            0   -37339.119    -26.93934    1721.9932    17.346167    23.736214    21.673766    8923.7904 
   23500    414.05643   -3352.9332   -2643.2546   -3352.9332    460.55718    33524.182            0            0   -37337.672   -27.330545   -719.09378    17.263006    23.622417    21.569858    8796.0568 
   24000     384.9131   -3285.5855   -2625.8576   -3285.5855     500.2117    33549.798            0            0   -37335.595   -26.772403    927.57607    17.382146    23.785446    21.718721    8979.4338 
   24500    393.80231    -3311.706   -2636.7423    -3311.706    479.25834      33546.7            0            0   -37337.665   -26.774468   -105.99758    17.381699    23.784835    21.718163    8978.7413 
   25000    407.00355   -3287.3799   -2589.7897   -3287.3799    487.62091    33563.453            0            0   -37338.453   -26.132576   -234.35697    17.522865    23.978004    21.894547    9199.2854 
   25500    392.30135   -3252.8452   -2580.4541   -3252.8452    419.49546    33662.171            0            0   -37334.511    -26.50415   -1110.8311    17.440592    23.865423    21.791749    9070.3163 
   26000    432.36679   -3339.7395   -2598.6776   -3339.7395    455.09713    33543.374            0            0   -37338.211   -26.390741   -1213.3186    17.465539    23.899559    21.822919    9109.2941 
   26500    405.65421   -3262.9127   -2567.6352   -3262.9127    468.32167    33601.713            0            0   -37332.947   -26.214764     46.01765    17.504533    23.952919    21.871642    9170.4439 
   27000    400.55138   -3320.0626   -2633.5312   -3320.0626    524.35697    33493.855            0            0   -37338.274   -26.997912    1315.1899    17.333614    23.719036    21.658081    8904.4301 
   27500     405.1365   -3315.3463   -2620.9562   -3315.3463    516.86331    33510.163            0            0   -37342.373   -26.458108    567.84786    17.450703    23.879258    21.804382    9086.1004 
   28000    391.78929    -3281.585   -2610.0715    -3281.585     446.5496     33603.19            0            0   -37331.324   -26.050935   -1026.5686    17.541151    24.003026    21.917395     9228.115 
   28500    417.53504   -3250.1328   -2534.4921   -3250.1328    428.13684    33658.157            0            0   -37336.426   -26.047122   -1086.4543    17.542006    24.004197    21.918464    9229.4657 
   29000    424.86612   -3341.1922   -2612.9862   -3341.1922    552.65339    33440.683            0            0   -37334.529   -25.629301    418.97675    17.636819    24.133937    22.036931    9379.9289 
   29500     406.9725   -3305.6693   -2608.1323   -3305.6693    481.63882    33548.653            0            0   -37335.961   -25.845895     -687.671    17.587414    24.066332      21.9752    9301.3231 
   30000    391.23481   -3219.0005   -2548.4374   -3219.0005    518.13003    33598.745            0            0   -37335.875   -26.242723    1126.1017    17.498314    23.944409    21.863872    9160.6736 
   30500    393.98538   -3306.7871   -2631.5097   -3306.7871    460.88762    33567.241            0            0   -37334.916   -26.057235   -1023.5412    17.539737    24.001091    21.915628    9225.8838 
   31000    385.09656   -3348.3458   -2688.3035   -3348.3458    542.58841    33447.638            0            0   -37338.572   -27.482644    1670.7864      17.2311    23.578758    21.529992    8747.3762 
   31500    393.44268   -3364.0008   -2689.6535   -3364.0008    457.54654    33522.124            0            0   -37343.671   -27.019813   -1271.2473     17.32893    23.712626    21.652228    8897.2128 
   32000    394.17196   -3238.3692   -2562.7719   -3238.3692    524.77831    33567.619            0            0   -37330.767    -26.87993    2003.0176    17.358937    23.753688    21.689722    8943.5138 
   32500    395.76292   -3262.6939   -2584.3698   -3262.6939    466.38354    33609.265            0            0   -37338.342   -26.623166    17.245658    17.414564    23.829807    21.759227    9029.7683 
   33000    416.33246   -3344.9737   -2631.3941   -3344.9737    506.03683    33492.031            0            0   -37343.041   -27.016389    597.66433    17.329661    23.713627    21.653143    8898.3402 
   33500    405.58431      -3216.4   -2521.2423      -3216.4    473.25086    33645.319            0            0    -37334.97   -26.806364    1043.4603    17.374802    23.775398    21.709546    8968.0578 
   34000    411.21347   -3325.1864   -2620.3806   -3325.1864    483.78241    33525.596            0            0   -37334.565   -27.061793    337.73835    17.319964    23.700358    21.641026    8883.4108 
   34500    411.58142    -3347.791   -2642.3546    -3347.791    536.77526    33455.168            0            0   -37339.735   -26.242529    665.48979    17.498357    23.944468    21.863926    9160.7413 
   35000    413.39374   -3313.3266   -2604.7839   -3313.3266    490.12183    33536.402            0            0    -37339.85    -27.24529    539.09835    17.280993    23.647031    21.592333     8823.581 
   35500    374.38115   -3296.6341   -2654.9576   -3296.6341    514.08104    33529.329            0            0   -37340.044   -25.623434    61.796298    17.638165    24.135779    22.038613    9382.0768 
   36000    404.42384   -3329.7026   -2636.5339   -3329.7026    468.82382    33538.927            0            0   -37337.453   -26.571518   -835.59464     17.42584    23.845237    21.773316    9047.3198 
   36500    394.35178    -3328.282   -2652.3765    -3328.282    463.71235    33549.499            0            0   -37341.493   -26.542235   -701.41018    17.432246    23.854003    21.781321    9057.3014 
   37000    377.92631   -3281.9338    -2634.181   -3281.9338    439.51015    33611.546            0            0    -37332.99   -26.298323   -1291.6809    17.485974    23.927523    21.848453    9141.3063 
   37500    412.69906   -3277.6718   -2570.3197   -3277.6718    482.92827    33575.469            0            0   -37336.069   -26.724592    577.79418    17.392506    23.799622    21.731665    8995.4983 
   38000    424.51934   -3227.2551   -2499.6435   -3227.2551    460.43598     33644.34            0            0   -37332.031   -25.721188   -209.79509    17.615792    24.105164    22.010658      9346.42 
   38500    392.99644   -3305.8258   -2632.2434   -3305.8258    492.68996     33540.03            0            0   -37338.545   -27.311136    886.80733    17.267094    23.628011    21.574966    8802.3077 
   39000    383.59634   -3220.2487   -2562.7777   -3220.2487    415.84335    33697.475            0            0   -37333.567   -26.252054   -1031.4517    17.496241    23.941572    21.861281    9157.4178 
   39500    414.68343   -3271.2308   -2560.4776   -3271.2308    415.37475    33648.077            0            0   -37334.683   -26.370841   -1458.7076    17.469931     23.90557    21.828407    9116.1683 
   40000    421.40626   -3280.7269    -2558.451   -3280.7269    484.69627    33570.698            0            0   -37336.121   -25.820592   -109.77368    17.593157    24.074191    21.982376    9310.4382 
   40500    387.95374   -3250.1791   -2585.2397   -3250.1791    447.82062    33635.248            0            0   -37333.247    -26.35662   -402.13773    17.473072    23.909869    21.832332    9121.0869 
   41000     403.3507   -3255.3185   -2563.9892   -3255.3185    424.70863    33657.259            0            0   -37337.286   -26.628399   -858.00971    17.413423    23.828246    21.757802    9027.9938 
   41500    397.00425   -3283.2051   -2602.7534   -3283.2051    454.37195    33601.076            0            0   -37338.653   -25.795955   -976.57288    17.598756    24.081852    21.989372    9319.3302 
   42000    393.78756   -3266.2985   -2591.3601   -3266.2985     473.3645    33596.853            0            0   -37336.516   -26.377749    41.982089    17.468406    23.903483    21.826501    9113.7808 
   42500    402.44232   -3345.4999   -2655.7276   -3345.4999    520.43274    33473.109            0            0   -37339.042   -26.901932    679.07993    17.354204     23.74721    21.683808    8936.1991 
   43000    399.60491    -3268.101   -2583.1919    -3268.101    504.23758    33562.337            0            0   -37334.675   -26.026331    306.03853    17.546676    24.010587    21.924299    9236.8387 
   43500    409.78247   -3335.9874   -2633.6342   -3335.9874    490.82507    33515.035            0            0   -37341.848   -27.139971    398.76736    17.303318    23.677579    21.620227    8857.8217 
   44000    408.48972   -3282.8968   -2582.7594   -3282.8968    549.47874    33504.058            0            0   -37336.434    -26.92148    2115.6452    17.350002    23.741461    21.678558    8929.7106 
   44500    389.45699   -3245.0381   -2577.5222   -3245.0381    522.68251    33572.457            0            0   -37340.178   -26.304654    1373.2403    17.484571    23.925603      21.8467    9139.1062 
   45000    407.77007   -3239.6203   -2540.7163   -3239.6203    454.69203    33644.191            0            0   -37338.503   -26.473039   -32.119269    17.447421    23.874768    21.800282    9080.9757 
   45500    408.61201   -3325.7498   -2625.4028   -3325.7498    500.42168    33514.217            0            0   -37340.388   -26.538952   -13.410192    17.432965    23.854986    21.782219    9058.4218 
   46000    411.84552   -3210.8661    -2504.977   -3210.8661    447.44593     33678.11            0            0   -37336.422   -26.225301   -239.17829    17.502188     23.94971    21.868712    9166.7595 
   46500    422.44877    -3251.262   -2527.1992    -3251.262    446.99423    33638.231            0            0   -37336.487   -26.208529   -317.54784    17.505921    23.954818    21.873376    9172.6255 
   47000    400.25416    -3293.243   -2607.2211    -3293.243    506.95164    33538.905            0            0     -37339.1   -26.560225    974.63177    17.428309    23.848616    21.776402    9051.1665 
   47500    394.87919   -3288.3331   -2611.5236   -3288.3331    464.86472    33587.927            0            0   -37341.125   -26.694313   -241.12058    17.399079    23.808617    21.739879    9005.7017 
   48000    404.21967   -3288.4931   -2595.6744   -3288.4931    528.84469    33516.592            0            0   -37333.929     -26.7779    1277.0956    17.380957    23.783819    21.717235    8977.5905 
   48500    388.52412   -3244.3802   -2578.4632   -3244.3802    453.26134    33638.467            0            0   -37336.108    -26.57997    39.420089    17.423993    23.842709    21.771008    9044.4428 
   49000     394.7808   -3316.5566   -2639.9159   -3316.5566    497.01565    33525.084            0            0   -37338.657   -27.187329    506.80356    17.293265    23.663823    21.607666    8842.3921 
   49500    427.65045    -3287.063   -2554.0847    -3287.063    459.41111    33591.322            0            0   -37337.796   -26.217813   -491.45898    17.503854     23.95199    21.870794    9169.3774 
   50000    374.64956   -3227.2156   -2585.0791   -3227.2156    463.07587    33648.097            0            0   -37338.388   -26.501661    160.04981    17.441138     23.86617    21.792431     9071.168 
   50500    368.40367   -3244.4206   -2612.9893   -3244.4206    519.73005    33574.237            0            0   -37338.388   -25.734924    799.28351    17.612657    24.100874    22.006741    9341.4312 
   51000    399.11361   -3369.9719   -2685.9048   -3369.9719    525.55346    33442.632            0            0   -37338.157   -26.422691    494.75656    17.458496    23.889923     21.81412    9098.2794 
   51500    401.83119   -3285.0162   -2596.2913   -3285.0162    522.72256    33531.355            0            0   -37339.093   -26.372614    866.85426    17.469539    23.905034    21.827918    9115.5555 
   52000    412.52211   -3274.6643   -2567.6155   -3274.6643    442.84253    33620.544            0            0    -37338.05   -26.200683   -1018.4705    17.507668    23.957209    21.875559    9175.3724 
   52500    381.67788   -3325.8193   -2671.6365   -3325.8193    435.65263    33577.091            0            0   -37338.563   -26.514536   -1118.1328    17.438314    23.862306    21.788903    9066.7633 
   53000    416.20951   -3243.0541   -2529.6853   -3243.0541    430.29844    33666.942            0            0   -37340.295   -26.483737    -866.7804    17.445072    23.871553    21.797346    9077.3073 
   53500     393.1416    -3241.584   -2567.7527    -3241.584     493.1203    33605.132            0            0   -37339.836   -27.317613    1412.2198    17.265729    23.626144    21.573261    8800.2207 
   54000    402.32652   -3264.0459    -2574.472   -3264.0459    464.28138    33609.544            0            0   -37337.871    -26.17866   -102.88656    17.512576    23.963925    21.881692    9183.0912 
   54500    403.49633   -3294.4002   -2602.8213   -3294.4002     462.8013    33578.042            0            0   -37335.243   -26.946047   -424.68364    17.344728    23.734244    21.671968    8921.5692 
   55000     397.4038   -3297.5208   -2616.3843   -3297.5208    512.56054    33525.183            0            0   -37335.265   -26.845515    806.49484    17.366352    23.763834    21.698987     8954.979 
   55500    387.76007   -3322.5171   -2657.9096   -3322.5171    497.52699    33521.377            0            0   -37341.422   -25.993845   -622.81515    17.553983    24.020585    21.933429    9248.3824 
   56000    405.13277   -3287.1667    -2592.783   -3287.1667    496.52922    33556.079            0            0   -37339.775   -26.517187     646.1067    17.437733    23.861511    21.788177    9065.8569 
   56500    403.37342    -3404.525   -2713.1567    -3404.525    518.29114    33418.664            0            0    -37341.48   -26.765965    50.803351     17.38354    23.787353    21.720462    8981.5936 
   57000       395.53   -3291.4915   -2613.5667   -3291.4915    453.76844    33594.287            0            0   -37339.547   -26.263384   -833.91184    17.493725    23.938129    21.858137    9153.4672 
   57500     409.8147   -3288.9092   -2586.5009   -3288.9092    463.51637    33585.976            0            0   -37338.401   -26.433866   -463.45813    17.456036    23.886556    21.811045    9094.4331 
   58000    408.48979   -3251.4784   -2551.3409   -3251.4784    501.44432    33579.771            0            0   -37332.693    -25.69081    548.96194    17.622732    24.114661     22.01933    9357.4714 
   58500    378.41356    -3285.338   -2636.7501    -3285.338    510.35835     33541.98            0            0   -37337.676   -26.986715    1152.4483    17.336011    23.722316    21.661076    8908.1248 
   59000    408.74759   -3280.1359   -2579.5565   -3280.1359    497.18915    33559.165            0            0    -37336.49   -26.528348    562.05143    17.435288    23.858164    21.785121    9062.0428 
   59500    396.09313   -3286.9687   -2608.0786   -3286.9687    432.88316    33618.548            0            0     -37338.4    -26.29587   -1291.0499    17.486518    23.928267    21.849132    9142.1591 
   60000    392.96707   -3326.8795   -2653.3474   -3326.8795    445.58884    33568.257            0            0   -37340.725   -26.869986   -1086.2248    17.361078    23.756618    21.692398    8946.8234 
   60500    417.01213   -3277.1507   -2562.4062   -3277.1507    383.03395     33678.03            0            0   -37338.214   -27.239202    -1754.581    17.282281    23.648792    21.593941    8825.5532 
   61000    388.32369   -3238.1179   -2572.5443   -3238.1179     385.5672     33717.43            0            0   -37341.115     -26.1409   -1967.9084    17.521004    23.975458    21.892223    9196.3559 
   61500    388.36826    -3277.823    -2612.173    -3277.823    413.19473    33646.576            0            0   -37337.594   -26.443391   -1437.3516    17.453939    23.883687    21.808426    9091.1571 
   62000    407.35095   -3375.4438   -2677.2582   -3375.4438    504.50144    33460.942            0            0   -37340.887   -27.154602    275.66316     17.30021    23.673326    21.616343    8853.0492 
   62500     417.1473   -3276.4844   -2561.5082   -3276.4844    472.09789    33589.119            0            0   -37337.701   -26.390473   -223.45009    17.465598    23.899641    21.822993    9109.3867 
   63000    388.78772   -3304.3278   -2637.9589   -3304.3278    470.19776    33564.922            0            0   -37339.447   -26.436817   -421.73475    17.455386    23.885667    21.810234    9093.4178 
   63500    419.14936   -3281.5879   -2563.1803   -3281.5879    517.14045    33539.783            0            0   -37338.511   -26.141199    801.73498    17.520938    23.975367    21.892139    9196.2509 
   64000    405.37089   -3314.4168   -2619.6249   -3314.4168    519.12867    33501.942            0            0   -37335.487     -26.0124    145.28163    17.549808    24.014873    21.928213    9241.7857 
   64500    386.45312   -3284.4532   -2622.0858   -3284.4532    472.58447     33582.54            0            0   -37339.578   -26.805713   -216.15536    17.374943     23.77559    21.709721    8968.2755 
   65000    384.96893   -3245.7241   -2585.9005   -3245.7241    452.56923    33636.447            0            0    -37334.74   -25.813127   -553.97093    17.594853    24.076511    21.984495    9313.1308 
   65500    415.14027   -3308.4396   -2596.9034   -3308.4396    455.98199    33575.322            0            0   -37339.743   -27.086583   -202.54013    17.314679    23.693125    21.634422    8875.2806 
   66000    384.77852   -3347.8124   -2688.3152   -3347.8124    478.90737     33513.24            0            0    -37339.96   -27.141395   -203.93661    17.303015    23.677165    21.619849    8857.3568 
   66500    382.64617   -3280.1628   -2624.3203   -3280.1628    404.75994    33654.761            0            0   -37339.684   -25.496205   -2353.5855    17.667455    24.175859    22.075211    9428.8945 
   67000    389.51026   -3296.8346   -2629.2273   -3296.8346    465.81768    33578.574            0            0   -37341.226   -26.979829   -242.26586    17.337486    23.724334    21.662919    8910.3984 
   67500    414.43296   -3282.6091   -2572.2852   -3282.6091    464.73007    33589.199            0            0   -37336.538   -26.112962   -288.33258    17.527251    23.984005    21.900028    9206.1952 
   68000    403.63773   -3279.5611   -2587.7399   -3279.5611    502.41008    33552.024            0            0   -37333.995   -26.016469    221.76373    17.548893    24.013621    21.927069    9240.3403 
   68500    418.22892   -3300.5235   -2583.6934   -3300.5235    497.85865    33541.249            0            0   -37339.631   -26.402515     239.4068    17.462942    23.896006    21.819675    9105.2319 
   69000    423.15424   -3378.2975   -2653.0256   -3378.2975     561.9635    33399.639            0            0     -37339.9   -26.102605    693.66823    17.529569    23.987177    21.902924    9209.8481 
   69500    384.78898   -3342.5708   -2683.0556   -3342.5708    493.05284    33505.211            0            0   -37340.834   -27.389048    237.83966    17.250706    23.605586    21.554489    8777.2682 
   70000    405.81583   -3256.9178   -2561.3633   -3256.9178     424.3785    33654.854            0            0    -37336.15   -26.147664   -1195.3824    17.519494    23.973391    21.890335    9193.9772 
   70500    395.15364   -3287.9423   -2610.6625   -3287.9423    471.41995    33576.428            0            0    -37335.79   -26.501538   -196.08685    17.441165    23.866207    21.792465    9071.2104 
   71000    410.60757   -3311.1861   -2607.4188   -3311.1861    491.94714    33534.084            0            0   -37337.217   -26.820261   -8.5482531    17.371801    23.771291    21.705795    8963.4111 
   71500    399.20688   -3227.9492   -2543.7223   -3227.9492    440.05988    33668.889            0            0   -37336.898   -26.003254   -661.30445    17.551865    24.017688    21.930783    9245.0362 
   72000    397.70008   -3285.9624   -2604.3181   -3285.9624    403.56464    33646.397            0            0   -37335.924   -27.095147   -1558.2535    17.312854    23.690629    21.632143    8872.4754 
   72500    393.08924   -3262.6448   -2588.9033   -3262.6448    475.02877    33601.491            0            0   -37339.165   -26.847743   -70.755724    17.365872    23.763177    21.698387    8954.2358 
   73000    413.89342   -3362.2337   -2652.8345   -3362.2337    485.52282    33492.404            0            0    -37340.16   -26.862252   -307.75446    17.362745    23.758898    21.694479    8949.3996 
   73500    416.12745   -3254.7394   -2541.5111   -3254.7394    433.69027    33649.901            0            0    -37338.33   -26.221547   -911.98498    17.503024    23.950853    21.869756    9168.0719 
   74000    401.37763     -3291.78   -2603.8325     -3291.78    528.42682    33519.551            0            0   -37339.758   -26.457074    1059.8799     17.45093    23.879569    21.804666    9086.4554 
   74500      381.042   -3235.2397   -2582.1467   -3235.2397    486.76718    33616.917            0            0   -37338.923   -26.377391      534.325    17.468485    23.903591      21.8266    9113.9046 
   75000    401.10125   -3273.2751   -2585.8013   -3273.2751    501.96792    33561.497            0            0    -37336.74    -27.01245    1001.3805    17.330504     23.71478    21.654195     8899.638 
   75500    396.35492   -3250.6462   -2571.3074   -3250.6462    483.77278    33601.492            0            0   -37335.911   -26.571408     658.8313    17.425864     23.84527    21.773346    9047.3574 
   76000    408.22249   -3241.2059   -2541.5265   -3241.2059    417.86737    33680.375            0            0   -37339.448   -26.369365   -911.96805    17.470257    23.906016    21.828814    9116.6784 
   76500     415.1813    -3237.928   -2526.3215    -3237.928    421.85755    33680.615            0            0   -37340.401   -25.615537   -1713.2153    17.639977    24.138259    22.040878    9384.9692 
   77000    428.80592    -3310.123   -2575.1643    -3310.123    451.65287    33573.294            0            0    -37335.07   -26.738455   -692.95477    17.389499    23.795509    21.727909    8990.8345 
   77500    399.59928    -3252.499   -2567.5995    -3252.499    475.23235    33608.554            0            0   -37336.285   -26.754404    555.23361    17.386043    23.790779    21.723591    8985.4747 
   78000     380.5017    -3254.806   -2602.6391    -3254.806    426.27567    33656.709            0            0   -37337.791   -27.012933   -806.38728      17.3304    23.714639    21.654066    8899.4787 
   78500    408.05038    -3230.332   -2530.9477    -3230.332    386.01393    33714.343            0            0   -37330.689   -26.195916   -2157.3924     17.50873    23.958662    21.876886    9177.0419 
   79000    373.32831   -3338.6335   -2698.7616   -3338.6335    505.44779    33495.911            0            0   -37339.992   -26.012213   -597.27076     17.54985     24.01493    21.928265    9241.8521 
   79500    394.96971   -3272.2685    -2595.304   -3272.2685    474.67503    33590.296            0            0    -37337.24   -26.509553    129.44402    17.439407    23.863801    21.790268    9068.4676 
   80000    390.19048   -3305.9329   -2637.1597   -3305.9329    466.50375    33563.459            0            0   -37335.895   -26.081119   -696.65464    17.534381    23.993762    21.908937    9217.4353 
   80500    398.71943   -3292.9318   -2609.5403   -3292.9318    497.71172    33544.915            0            0   -37335.558    -26.84413    714.90895    17.366651    23.764243     21.69936     8955.441 
   81000    430.29893   -3318.7156    -2581.198   -3318.7156      519.077    33499.637            0            0    -37337.43   -26.274919    693.66141    17.491164    23.934625    21.854938    9149.4488 
   81500    394.36427   -3279.2347   -2603.3078   -3279.2347    485.11223    33573.675            0            0   -37338.022   -26.565233    151.44322    17.427214    23.847117    21.775033    9049.4605 
   82000    391.51644   -3285.5882   -2614.5425   -3285.5882    461.66744    33591.902            0            0   -37339.158   -26.690949   -263.96659     17.39981    23.809618    21.740792     9006.837 
   82500    400.24081   -3244.5883   -2558.5893   -3244.5883    457.08438    33632.389            0            0   -37334.061   -27.202853    793.60705    17.289975    23.659321    21.603555    8837.3459 
   83000    393.09615   -3285.7865   -2612.0332   -3285.7865    390.24674    33665.768            0            0   -37341.801   -26.833671   -2002.2494    17.368907     23.76733    21.702179    8958.9317 
   83500     396.2819   -3282.6483   -2603.4347   -3282.6483    495.80457    33559.147            0            0     -37337.6   -26.474989    672.12284    17.446993    23.874182    21.799747    9080.3069 
   84000    392.55657   -3268.7282   -2595.8997   -3268.7282     422.8473    33651.845            0            0    -37343.42   -26.186995   -1282.2291    17.510718    23.961383     21.87937    9180.1685 
   84500    400.99753   -3309.6502   -2622.3542   -3309.6502    419.32882    33615.023            0            0   -37344.002   -26.906159   -1294.0507    17.353295    23.745967    21.682672    8934.7954 
   85000    385.23642   -3259.9343   -2599.6522   -3259.9343    485.76317     33595.57            0            0   -37341.267   -27.084773    901.44694    17.315065    23.693653    21.634904    8875.8737 
   85500    389.66459    -3314.612   -2646.7402    -3314.612    429.27098    33591.761            0            0   -37335.644    -26.16555   -1763.1907    17.515501    23.967927    21.885346    9187.6923 
   86000    412.74598   -3243.7279   -2536.2954   -3243.7279    455.52425    33634.668            0            0    -37333.92   -26.562528   -362.17519    17.427806    23.847927    21.775773     9050.382 
   86500     404.0531   -3282.6235   -2590.0903   -3282.6235    463.20466    33586.624            0            0   -37332.452    -25.78391   -1061.4703    17.601496    24.085602    21.992796    9323.6838 
   87000    409.42393   -3276.4057   -2574.6671   -3276.4057    413.29841    33648.672            0            0   -37338.376    -26.54193   -1320.8558    17.432313    23.854094    21.781404    9057.4055 
   87500    380.89148   -3220.1777   -2567.3427   -3220.1777    517.58163    33600.986            0            0   -37338.745   -26.026644     947.2454    17.546606    24.010491    21.924211    9236.7278 
   88000    391.53641   -3274.4287   -2603.3487   -3274.4287    462.51002    33601.547            0            0   -37338.486   -26.446841    -240.3257     17.45318    23.882649    21.807478    9089.9712 
   88500    400.60253   -3244.9122   -2558.2931   -3244.9122    469.57037    33624.164            0            0   -37338.646   -25.969262   -227.01498     17.55952    24.028162    21.940348    9257.1374 
   89000     417.0074   -3270.5731   -2555.8367   -3270.5731    475.96599     33586.94            0            0   -37333.479    -26.65163    325.92428    17.408363    23.821321    21.751478    9020.1247 
   89500    411.55568   -3314.6367   -2609.2443   -3314.6367    442.08614    33582.023            0            0   -37338.746   -27.025774   -673.70925    17.327655    23.710882    21.650636    8895.2501 
   90000    398.33481   -3305.2254   -2622.4931   -3305.2254    557.50638    33474.297            0            0   -37337.029   -27.029444    2398.4953    17.326871    23.709809    21.649656    8894.0424 
   90500    390.20947   -3228.0376   -2559.2319   -3228.0376    372.14938    33737.746            0            0   -37337.933   -26.022579   -2476.2678     17.54752    24.011741    21.925353    9238.1705 
   91000    404.92231   -3304.6107   -2610.5878   -3304.6107    498.46206    33537.024            0            0   -37340.097   -26.738104    544.25159    17.389575    23.795613    21.728004    8990.9525 
   91500     380.7353   -3284.2531   -2631.6858   -3284.2531    502.23917    33551.799            0            0   -37338.292     -26.9486    899.48358     17.34418    23.733495    21.671284     8920.724 
   92000     396.5079   -3308.8496   -2629.2487   -3308.8496    518.09648    33510.396            0            0   -37337.342   -26.704644    960.41066    17.396835    23.805547    21.737075    9002.2177 
   92500    416.06499   -3295.8709   -2582.7497   -3295.8709    451.22342    33592.145            0            0   -37339.239   -26.453264   -829.69761    17.451768    23.880716    21.805713    9087.7641 
   93000    380.91044   -3210.4037   -2557.5363   -3210.4037    534.14815     33595.67            0            0   -37340.222   -26.308554    1440.3104    17.483707    23.924421     21.84562    9137.7512 
   93500    388.00642   -3269.5663   -2604.5366   -3269.5663     484.8435    33584.297            0            0   -37338.707   -26.518271    374.04784    17.437496    23.861186     21.78788    9065.4862 
   94000    412.90564   -3313.1979   -2605.4917   -3313.1979    463.72542    33563.752            0            0   -37340.675   -26.365306   -831.57375    17.471153    23.907243    21.829935    9118.0821 
   94500    395.02736   -3342.5479   -2665.4845   -3342.5479    495.42913    33505.658            0            0   -37343.635   -27.020901     28.20211    17.328697    23.712307    21.651937    8896.8544 
   95000    381.94713    -3230.864   -2576.2197    -3230.864    455.60368    33643.443            0            0   -37329.911   -26.680443    -3.459564    17.402094    23.812742    21.743645    9010.3834 
   95500    387.67756   -3278.1695   -2613.7034   -3278.1695    451.37033    33606.168            0            0   -37335.708   -26.660641   -197.68008    17.406401    23.818637    21.749028     9017.076 
   96000    405.17544   -3326.5627   -2632.1059   -3326.5627    514.55604    33501.383            0            0   -37342.502   -26.319018    548.04031     17.48139     23.92125    21.842725    9134.1182 
   96500    419.70829   -3248.7219   -2529.3562   -3248.7219    487.35838    33602.408            0            0   -37338.488    -26.01277    380.21047    17.549725    24.014759    21.928109    9241.6542 
   97000    409.39334   -3192.9287   -2491.2425   -3192.9287    469.18596    33673.833            0            0   -37335.948    -24.95736   -410.71469    17.793701    24.348612    22.232953      9632.47 
   97500    404.76856   -3253.1611   -2559.4017   -3253.1611    447.20305    33641.632            0            0   -37341.996   -26.206895   -636.22094    17.506285    23.955316    21.873831    9173.1973 
   98000    404.26648   -3256.8245   -2563.9256   -3256.8245    462.45434    33613.745            0            0   -37333.023   -26.438628   -212.17889    17.454987    23.885121    21.809736    9092.7949 
   98500     386.4592   -3315.1639    -2652.786   -3315.1639     493.8234    33531.141            0            0   -37340.128   -26.519717   -194.41789    17.437179    23.860752    21.787484     9064.992 
   99000    396.87541   -3290.7432   -2610.5123   -3290.7432    500.88584    33546.692            0            0   -37338.321    -26.38489   -8.3949634     17.46683    23.901326    21.824532    9111.3142 
   99500    412.43281   -3261.7851   -2554.8894   -3261.7851    436.07846    33642.502            0            0   -37340.366   -26.800105   -393.43617    17.376155    23.777248    21.711236    8970.1524 
  100000     395.3163   -3249.5245   -2571.9659   -3249.5245    453.11068    33634.455            0            0    -37337.09   -25.631087   -960.36132    17.636409    24.133376    22.036419    9379.2752 
  100500    379.98774   -3328.8333   -2677.5473   -3328.8333    448.22699    33564.249            0            0   -37341.309   -26.413259   -1097.8539    17.460574    23.892766    21.816716    9101.5281 
  101000    420.45901   -3304.5977   -2583.9453   -3304.5977    520.15635    33512.846            0            0     -37337.6   -26.588754    905.74882    17.422074    23.840083     21.76861    9041.4549 
  101500    407.41871   -3300.6166   -2602.3148   -3300.6166    444.48295    33592.598            0            0   -37337.697   -26.757931   -768.48682    17.385279    23.789734    21.722636    8984.2905 
  102000    393.85672   -3243.4493   -2568.3924   -3243.4493    527.24639    33568.204            0            0   -37338.899    -26.58048    1654.2244    17.423882    23.842557    21.770869    9044.2696 
  102500    395.61134   -3266.1388   -2588.0745   -3266.1388    485.89259    33583.432            0            0   -37335.463   -25.509105   -369.40282    17.664476    24.171783    22.071489    9424.1259 
  103000    384.27284   -3273.9781   -2615.3476   -3273.9781    485.67249    33581.474            0            0   -37341.125   -26.496472    162.00804    17.442276    23.867728    21.793853    9072.9445 
  103500    400.70644   -3271.5366   -2584.7394   -3271.5366    492.03983    33572.623            0            0   -37336.199   -26.234926     605.8638    17.500048    23.946781    21.866038    9163.3963 
  104000    410.28254    -3246.512   -2543.3018    -3246.512    450.34218    33643.765            0            0    -37340.62   -26.656783   -183.65388    17.407241    23.819786    21.750077    9018.3811 
  104500    407.76705   -3306.8902   -2607.9914   -3306.8902    484.57307     33544.47            0            0   -37335.934   -26.604291   -34.443585    17.418682    23.835441    21.764372    9036.1747 
  105000    404.10103   -3305.0802   -2612.4648   -3305.0802    448.02661    33589.496            0            0   -37342.602   -26.955237   -475.04681    17.342757    23.731547    21.669505    8918.5276 
  105500    383.01015   -3363.3309   -2706.8646   -3363.3309    471.12702    33505.821            0            0   -37340.279   -27.405012   -257.40126    17.247356    23.601001    21.550303    8772.1555 
  106000    414.14615   -3313.2089   -2603.3766   -3313.2089    444.63467    33583.544            0            0   -37341.387   -26.544345   -883.43924    17.431784     23.85337    21.780743    9056.5813 
  106500    388.49737   -3306.0875   -2640.2163   -3306.0875    516.32909    33513.038            0            0   -37335.455   -27.278334    1180.4972    17.274013    23.637479     21.58361    8812.8926 
  107000     386.4851   -3279.5905   -2617.1682   -3279.5905    501.38696    33558.275            0            0   -37339.252   -26.144411    427.71423     17.52022    23.974385    21.891243    9195.1211 
  107500    391.36595   -3238.5829   -2567.7951   -3238.5829    457.24753    33639.188            0            0   -37335.019    -26.43907   -168.52832     17.45489    23.884989    21.809614     9092.643 
  108000    409.42029   -3306.4315   -2604.6991   -3306.4315    484.03997     33545.55            0            0   -37336.021   -26.445221   -115.13209    17.453537    23.883136    21.807923    9090.5279 
  108500     381.2637   -3273.0774   -2619.6045   -3273.0774     473.4672     33592.67            0            0   -37339.215   -26.932375   -23.814425    17.347662     23.73826    21.675635    8926.0982 
  109000    404.71399   -3316.8429    -2623.177   -3316.8429    472.18401    33547.423            0            0   -37336.449   -26.523288    -265.5899    17.436396    23.859681    21.786506    9063.7714 
  109500    392.61704   -3353.8594   -2680.9272   -3353.8594    402.16662    33585.511            0            0   -37341.537   -26.706761    -2299.314    17.396376    23.804918    21.736501    9001.5043 
  110000    400.21772   -3280.5933   -2594.6338   -3280.5933    466.29757    33586.439            0            0    -37333.33   -27.042177     213.0478    17.324151    23.706087    21.646257    8889.8546 
  110500    417.76226   -3237.8295   -2521.7992   -3237.8295      432.269    33670.704            0            0   -37340.802   -25.532208   -1416.0109    17.659147     24.16449     22.06483    9415.5985 
  111000    393.00798   -3300.7214   -2627.1192   -3300.7214    492.89569    33541.426            0            0   -37335.043   -26.190558    25.032231    17.509924    23.960296    21.878378    9178.9194 
  111500     429.4688   -3248.5544   -2512.4596   -3248.5544    452.13257    33631.205            0            0   -37331.892    -26.25172   -500.74379    17.496315    23.941673    21.861374     9157.534 
  112000    403.78703   -3293.3936   -2601.3164   -3293.3936    488.24357    33554.662            0            0   -37336.299   -26.649818    140.25056    17.408757    23.821861    21.751971    9020.7379 
  112500    425.10395   -3304.6462   -2576.0326   -3304.6462    484.00874    33548.959            0            0   -37337.614   -26.372615    93.646965    17.469539    23.905034    21.827918     9115.555 
  113000    403.90379   -3286.0837   -2593.8064   -3286.0837    474.39374    33581.488            0            0   -37341.965   -26.868926    448.80914    17.361307     23.75693    21.692683    8947.1764 
  113500    397.71528   -3282.8937   -2601.2233   -3282.8937    455.62278    33600.576            0            0   -37339.092   -25.834766   -939.19197    17.589939    24.069787    21.978355    9305.3299 
  114000    394.64358   -3270.3788   -2593.9733   -3270.3788    465.54507    33600.423            0            0   -37336.347   -26.690257    319.01744     17.39996    23.809823     21.74098    9007.0702 
  114500     392.8338   -3296.9977    -2623.694   -3296.9977    473.66182    33570.027            0            0   -37340.686   -27.027725    310.47825    17.327238    23.710312    21.650115    8894.6083 
  115000     384.0029   -3256.3559    -2598.188   -3256.3559    508.06549    33568.108            0            0    -37332.53   -26.686192    1230.4369    17.400844    23.811032    21.742084    9008.4423 
  115500    382.06064   -3354.2134   -2699.3745   -3354.2134    492.85196    33490.099            0            0   -37337.164   -26.885592   -160.81015    17.357719     23.75202      21.6882    8941.6303 
  116000    411.00443   -3344.5191   -2640.0716   -3344.5191    554.52021    33440.244            0            0   -37339.283   -26.706943    1277.4118    17.396336    23.804864    21.736451     9001.443 
  116500    385.36328   -3282.9824   -2622.4829   -3282.9824     466.3056    33592.255            0            0   -37341.543    -26.46599   -525.61474     17.44897    23.876888    21.802217    9083.3945 
  117000    386.92507   -3345.7157   -2682.5394   -3345.7157    457.76451    33536.003            0            0   -37339.484   -26.984735   -756.41087    17.336435    23.722896    21.661606    8908.7784 
  117500    391.71372   -3277.8555   -2606.4716   -3277.8555     490.1303    33577.877            0            0   -37345.862   -26.926088    528.68148    17.349012    23.740107    21.677321    8928.1823 
  118000    392.80454   -3340.1933   -2666.9398   -3340.1933    524.87712    33471.716            0            0   -37336.786   -27.410335     1337.618    17.246239    23.599473    21.548907    8770.4517 
  118500    393.09847   -3306.4622   -2632.7049   -3306.4622      476.159    33557.354            0            0   -37339.975   -27.406597    405.81854    17.247023    23.600546    21.549887    8771.6482 
  119000    386.72993     -3284.04   -2621.1982     -3284.04    488.17272    33568.342            0            0   -37340.555   -25.988599   -82.589992    17.555164    24.022201    21.934904    9250.2493 
  119500    383.06263   -3243.6017   -2587.0454   -3243.6017    459.59271    33635.581            0            0   -37338.776   -26.887372    145.18893    17.357336    23.751496    21.687721    8941.0384 
  120000    407.93933   -3343.3584   -2644.1644   -3343.3584    547.97581    33448.352            0            0   -37339.686   -27.183879    1982.7104    17.293997    23.664824     21.60858    8843.5142 
  120500    409.20646   -3316.6335   -2615.2677   -3316.6335    521.03114    33503.667            0            0   -37341.332   -27.375896    1613.5682    17.253468    23.609365     21.55794     8781.485 
  121000    388.58534   -3198.2467   -2532.2247   -3198.2467    453.16009    33682.956            0            0   -37334.363   -26.596876    240.63125      17.4203    23.837656    21.766394    9038.6938 
  121500    383.89249   -3225.6255    -2567.647   -3225.6255    476.28815    33637.685            0            0   -37339.599   -26.845817    946.95524    17.366287    23.763745    21.698906    8954.8783 
  122000    404.71769   -3276.5343    -2582.862   -3276.5343    490.66437    33571.431            0            0    -37338.63   -26.389664     286.9662    17.465776    23.899885    21.823216    9109.6658 
  122500    407.58567   -3329.6039    -2631.016   -3329.6039    498.41466    33512.965            0            0   -37340.984   -27.266377    423.19748    17.276537    23.640933    21.586765    8816.7569 
  123000     408.6163   -3254.5831   -2554.2288   -3254.5831    490.38958    33592.341            0            0   -37337.314   -26.360573     527.4842    17.472199    23.908673    21.831241    9119.7191 
  123500    403.95292    -3234.208   -2541.8465    -3234.208    446.97421     33648.43            0            0   -37329.612   -26.770948    151.06144    17.382461    23.785877    21.719115    8979.9219 
  124000    381.75004   -3210.5413   -2556.2348   -3210.5413    436.61972    33693.342            0            0   -37340.503   -25.587895   -1077.9139    17.646327    24.146947    22.048811    9395.1073 
  124500    395.90263   -3321.6472   -2643.0837   -3321.6472     536.4311    33478.276            0            0   -37336.354   -26.798267    944.74974    17.376552    23.777792    21.711732    8970.7675 
  125000    398.87143   -3323.7203   -2640.0683   -3323.7203    492.55548    33524.749            0            0   -37341.025    -26.38298   -37.169941    17.467251    23.901903    21.825059     9111.974 
  125500    397.62027   -3330.1351   -2648.6275   -3330.1351    468.18928    33537.357            0            0   -37335.681   -27.076972   -241.82859    17.316727    23.695928    21.636981    8878.4307 
  126000    406.19068   -3324.1164   -2627.9195   -3324.1164    461.87264    33553.202            0            0   -37339.191   -26.929801   -355.41266    17.348215    23.739016    21.676325    8926.9515 
  126500    392.11254   -3287.6446   -2615.5771   -3287.6446    510.36219    33541.299            0            0   -37339.306   -26.531227    815.68341    17.434657    23.857301    21.784333    9061.0593 
  127000    386.28627    -3280.351   -2618.2695    -3280.351    393.04533    33661.941            0            0   -37335.338   -26.402989   -2423.1105    17.462838    23.895863    21.819544    9105.0683 
  127500    398.69925     -3225.62   -2542.2632     -3225.62    467.01341     33644.33            0            0   -37336.964    -26.47703      145.373    17.446545    23.873568    21.799186     9079.607 
  128000    404.84633   -3288.2408   -2594.3481   -3288.2408    522.31521    33531.878            0            0   -37342.434   -26.442252    695.32204     17.45419     23.88403    21.808739    9091.5489 
  128500    408.31898   -3280.5421   -2580.6973   -3280.5421    476.75142     33573.02            0            0   -37330.314   -25.715625   -610.72229    17.617062    24.106902    22.012245    9348.4419 
  129000    405.71244   -3327.5864   -2632.2092   -3327.5864    475.93765    33537.264            0            0   -37340.789   -26.298441   -479.86294    17.485948    23.927487     21.84842    9141.2652 
  129500    391.55971   -3319.4451   -2648.3252   -3319.4451    469.20201    33548.343            0            0    -37336.99   -25.999647   -932.56616    17.552677    24.018798    21.931797    9246.3186 
  130000    378.47775   -3316.2764   -2667.5785   -3316.2764    467.37542    33553.152            0            0   -37336.804   -27.113235    55.033635    17.309003    23.685359    21.627331    8866.5561 
  130500    398.23134   -3305.6956   -2623.1407   -3305.6956    503.74084    33530.779            0            0   -37340.215   -26.526959    300.41368    17.435592    23.858581    21.785501    9062.5173 
  131000     400.7286   -3271.4855   -2584.6504   -3271.4855    475.43307    33588.503            0            0   -37335.422   -26.319126    77.250297    17.481366    23.921217    21.842695    9134.0807 
  131500    397.84095    -3294.742   -2612.8562    -3294.742     516.3923     33527.41            0            0   -37338.544   -26.787114    1009.7149    17.378963    23.781092    21.714745    8974.5025 
  132000    414.52993   -3277.7396   -2567.2495   -3277.7396    423.40889    33641.477            0            0   -37342.625   -26.712874   -1143.3719    17.395048    23.803102    21.734843    8999.4442 
  132500    414.91595    -3298.341   -2587.1893    -3298.341    459.96607    33581.665            0            0   -37339.972   -27.065129   -271.10645    17.319253    23.699384    21.640137    8882.3159 
  133000    395.21674   -3303.9619    -2626.574   -3303.9619    528.90363    33502.074            0            0   -37334.939   -27.097961    1360.8866    17.312255    23.689809    21.631394     8871.554 
  133500    400.89342   -3242.2997   -2555.1821   -3242.2997    429.41955     33670.83            0            0    -37342.55   -26.536097   -322.90554     17.43359    23.855842       21.783    9059.3965 
  134000    407.60544   -3303.3333   -2604.7116   -3303.3333    511.23707    33523.015            0            0   -37337.586   -27.006201    1138.8031     17.33184    23.716609    21.655865     8901.697 
  134500    403.22043   -3278.3881   -2587.2821   -3278.3881    454.57132    33606.354            0            0   -37339.314   -26.974735   -232.81647    17.338577    23.725827    21.664283    8912.0811 
  135000    402.94258   -3279.7554   -2589.1256   -3279.7554    477.59725    33580.115            0            0   -37337.468   -26.822833    24.927247    17.371246    23.770531    21.705102    8962.5516 
  135500    391.57436   -3288.2742   -2617.1292   -3288.2742    518.43601    33528.799            0            0   -37335.509   -26.417207    690.46451    17.459704    23.891576    21.815629     9100.168 
  136000    381.07652    -3322.918   -2669.7659    -3322.918     470.4227    33542.284            0            0   -37335.625   -26.277816   -733.09152    17.490522    23.933746    21.854135    9148.4401 
  136500    394.79756   -3327.1172   -2650.4477   -3327.1172    491.89023    33522.727            0            0   -37341.735   -26.920176    202.38703    17.350282    23.741845    21.678908    8930.1429 
  137000    385.73089   -3244.3757   -2583.2461   -3244.3757     433.5659    33649.422            0            0   -37327.364   -25.916454     -1128.85    17.571439    24.044471    21.955239    9275.9998 
  137500    399.66601   -3269.3468   -2584.3329   -3269.3468    454.88384    33611.657            0            0   -37335.887   -26.565487   -95.997788    17.427159    23.847041    21.774964    9049.3739 
  138000    385.87592   -3222.7419   -2561.3637   -3222.7419    399.94467    33711.763            0            0   -37334.449   -26.427976   -1199.1345    17.457332     23.88833    21.812665    9096.4599 
  138500    387.45522   -3270.5592   -2606.4742   -3270.5592    466.89804     33602.45            0            0   -37339.907   -26.450653   -254.46025    17.452342    23.881501     21.80643    9088.6611 
  139000    393.32711   -3253.7919   -2579.6427   -3253.7919    468.81674    33616.935            0            0   -37339.543   -26.231901   -176.67649     17.50072    23.947702    21.866878    9164.4531 
  139500    434.25047   -3335.8685   -2591.5781   -3335.8685     505.9941    33494.206            0            0   -37336.069   -26.807647    542.42309    17.374525    23.775018    21.709199    8967.6287 
  140000    399.22296    -3266.481   -2582.2265    -3266.481    432.15818    33634.052            0            0   -37332.691   -26.684328   -777.47548    17.401249    23.811587     21.74259    9009.0715 
  140500    419.68006   -3258.7079   -2539.3907   -3258.7079    495.23078    33578.394            0            0   -37332.333   -26.646332    869.56325    17.409516    23.822899     21.75292    9021.9182 
  141000    401.21525   -3256.2215   -2568.5523   -3256.2215    454.93809    33626.472            0            0   -37337.631   -26.818032    271.11592    17.372282    23.771949    21.706397     8964.156 
  141500    392.06896   -3310.5824   -2638.5897   -3310.5824    492.18802    33539.298            0            0   -37342.069   -26.877624    172.49401    17.359434    23.754367    21.690343     8944.281 
  142000    418.45034   -3350.0961   -2632.8866   -3350.0961    512.88867    33475.906            0            0    -37338.89   -26.836762    611.37621     17.36824    23.766417    21.701346    8957.8997 
  142500    417.21238   -3304.6848   -2589.5971   -3304.6848    452.57789    33583.943            0            0   -37341.206   -27.426323   -174.17889    17.242887    23.594887     21.54472    8765.3393 
  143000     392.2017   -3293.7558   -2621.5355   -3293.7558    456.65231    33589.096            0            0   -37339.505   -26.014888   -800.79352    17.549249    24.014107    21.927513    9240.9016 
  143500     412.8596   -3281.0721   -2573.4449   -3281.0721    515.01974    33541.351            0            0   -37337.443   -26.161251    719.65145     17.51646     23.96924    21.886545     9189.202 
  144000    392.06097   -3265.0769   -2593.0978   -3265.0769    476.15523    33597.522            0            0   -37338.754   -27.340234    854.67159    17.260966    23.619626    21.567309    8792.9394 
  144500    391.81001      -3273.5   -2601.9511      -3273.5    454.96162    33608.906            0            0   -37337.368   -26.469777   -554.10091    17.448138    23.875749    21.801177    9082.0947 
  145000    388.18155   -3282.1506   -2616.8207   -3282.1506    446.84899    33607.693            0            0   -37336.692   -26.417823   -1045.8557    17.459569     23.89139     21.81546     9099.956 
  145500    388.22416    -3254.758   -2589.3551    -3254.758    480.63036    33601.459            0            0   -37336.847   -26.845306    563.56984    17.366397    23.763896    21.699043    8955.0487 
  146000    406.42506   -3342.8675   -2646.2688   -3342.8675    493.03585    33500.969            0            0   -37336.872   -26.166649   -509.54327    17.515255    23.967591    21.885039    9187.3064 
  146500    383.53924   -3300.1224   -2642.7493   -3300.1224    517.49022     33522.65            0            0   -37340.263   -26.366826    647.37016    17.470818    23.906783    21.829515    9117.5564 
  147000      400.206   -3295.2357   -2609.2963   -3295.2357    462.21289    33582.417            0            0   -37339.866   -26.062984   -587.85424    17.538447    23.999326    21.914017    9223.8487 
  147500    399.65229    -3303.506   -2618.5157    -3303.506    428.83914    33603.753            0            0   -37336.098   -26.847548   -1120.4505    17.365914    23.763234    21.698439     8954.301 
  148000    377.24896   -3284.0168    -2637.425   -3284.0168    404.77924    33652.559            0            0   -37341.355    -26.57478   -1666.0116    17.425127    23.844261    21.772426    9046.2095 
  148500    395.62214   -3203.9958    -2525.913   -3203.9958    412.23394    33711.244            0            0   -37327.474   -26.500612   -953.59429    17.441368    23.866485    21.792718     9071.527 
  149000    415.73763   -3294.9995   -2582.4394   -3294.9995    516.79848    33526.611            0            0   -37338.409   -27.343684    2003.6141     17.26024    23.618633    21.566402    8791.8301 
  149500    385.00602   -3200.1038   -2540.2167   -3200.1038     466.9223     33668.36            0            0   -37335.386   -25.592306    47.116986    17.645313     24.14556    22.047545     9393.488 
  150000     417.6551   -3323.3091   -2607.4625   -3323.3091    509.23118    33505.883            0            0   -37338.424   -26.516817    412.52057    17.437814    23.861622    21.788278    9065.9835 
  150500    392.37431   -3270.2122   -2597.6961   -3270.2122    482.73797    33579.687            0            0   -37332.638   -27.051852    751.09213    17.322086    23.703261    21.643677    8886.6752 
  151000    405.74555    -3324.206    -2628.772    -3324.206    570.92636    33443.993            0            0   -37339.125   -26.635865    1652.5524    17.411796     23.82602    21.755769    9025.4634 
  151500     385.1434   -3331.0873   -2670.9647   -3331.0873    497.08524     33509.44            0            0   -37337.613   -26.887219    211.34891    17.357369    23.751541    21.687762    8941.0892 
  152000    399.11985    -3267.605   -2583.5272    -3267.605    398.86147    33674.662            0            0   -37341.128   -26.472935    -1901.992    17.447444    23.874799     21.80031    9081.0113 
  152500     407.8901   -3324.2614   -2625.1517   -3324.2614    556.55355    33454.266            0            0   -37335.081   -26.567616    1621.7265    17.426693    23.846404    21.774382    9048.6487 
  153000    422.26469   -3350.6728   -2626.9256   -3350.6728    500.16532    33491.729            0            0   -37342.568   -27.354766    701.21682    17.257909    23.615443    21.563489    8788.2682 
  153500    388.90405   -3262.1001   -2595.5318   -3262.1001    448.31694     33626.36            0            0   -37336.777   -26.875158   -485.76804    17.359965    23.755094    21.691006    8945.1018 
  154000    403.67882   -3295.1069   -2603.2152   -3295.1069    452.33745    33591.818            0            0   -37339.262    -26.28034   -788.61105    17.489961    23.932979    21.853435    9147.5612 
  154500    377.85793   -3273.2061   -2625.5705   -3273.2061    450.18616    33616.237            0            0   -37339.629   -26.926005    -451.1514     17.34903    23.740132    21.677344    8928.2099 
  155000    390.39101   -3229.6021   -2560.4853   -3229.6021    465.30858    33643.365            0            0   -37338.275   -26.731965     309.4412    17.390906    23.797434    21.729667    8993.0171 
  155500    387.18555   -3317.6429   -2654.0202   -3317.6429    450.86752    33567.678            0            0   -37336.189   -26.961305   -844.92144    17.341455    23.729766    21.667879    8916.5201 
  156000    387.86011   -3309.4797   -2644.7007   -3309.4797    445.48423    33584.557            0            0   -37339.521   -27.295203   -890.28483    17.270453    23.632608    21.579163     8807.446 
  156500    436.97268   -3294.0951   -2545.1389   -3294.0951    440.27675    33605.826            0            0   -37340.198   -26.034468   -1259.0974    17.544848    24.008085    21.922015     9233.952 
  157000    380.77125   -3292.1719    -2639.543   -3292.1719    526.75948    33521.927            0            0   -37340.858   -26.206634    888.44134    17.506343    23.955395    21.873903    9173.2888 
  157500    403.67704   -3316.3838   -2624.4952   -3316.3838    468.91768    33551.255            0            0   -37336.557    -25.95142   -892.04089    17.563543    24.033668    21.945374    9263.5016 
  158000    381.73731   -3293.5326   -2639.2479   -3293.5326     494.8169    33550.162            0            0   -37338.511   -26.544011    78.549208    17.431857    23.853471    21.780835    9056.6956 
  158500    400.00509   -3268.4193   -2582.8243   -3268.4193    437.46538     33633.29            0            0   -37339.175   -26.649249   -449.96608    17.408881     23.82203    21.752126    9020.9304 
  159000    380.42075   -3284.9408   -2632.9127   -3284.9408    456.78608    33600.137            0            0   -37341.863   -26.050032   -766.03181    17.541353    24.003303    21.917648    9228.4348 
  159500    400.50697    -3285.294   -2598.8387    -3285.294     464.1112    33584.264            0            0   -37333.669   -26.823169   -168.87495    17.371173    23.770431    21.705011    8962.4392 
  160000    398.08673   -3296.9408   -2614.6338   -3296.9408    513.98714    33526.032            0            0    -37336.96   -26.565079    905.16556    17.427248    23.847163    21.775075    9049.5127 
  160500    395.53954    -3296.992   -2619.0507    -3296.992    446.59588    33591.698            0            0   -37335.285   -27.189383   -466.05256     17.29283    23.663227    21.607122    8841.7242 
  161000    404.20746   -3354.4719   -2661.6742   -3354.4719    502.92541    33482.973            0            0   -37340.371   -26.777973   -32.911377    17.380941    23.783797    21.717215    8977.5659 
  161500     394.8725   -3277.2111   -2600.4132   -3277.2111    482.27935    33575.469            0            0    -37334.96   -25.769882   -123.18553     17.60469    24.089971    21.996786    9328.7593 
  162000     419.4188   -3308.8084   -2589.9389   -3308.8084    521.74657    33501.676            0            0   -37332.231   -26.122389     586.4404    17.525142     23.98112    21.897393    9202.8727 
  162500    397.79796   -3301.9912   -2620.1791   -3301.9912    516.93782    33511.989            0            0   -37330.918   -26.162598    442.96271    17.516159    23.968828    21.886169    9188.7289 
  163000    392.11518   -3274.5757   -2602.5037   -3274.5757    510.89572    33556.295            0            0   -37341.767   -26.019077     465.4898    17.548307    24.012818    21.926337     9239.414 
  163500    392.56142    -3316.756   -2643.9191    -3316.756    496.89066    33525.248            0            0   -37338.895   -26.382932    17.973042    17.467262    23.901917    21.825072    9111.9903 
  164000    407.17659   -3351.5302   -2653.6434   -3351.5302    553.51344    33438.426            0            0   -37343.469   -27.510579    1955.8347    17.225266    23.570774    21.522702    8738.4938 
  164500    416.50373   -3331.0625   -2617.1894   -3331.0625     486.1772    33521.979            0            0   -37339.219    -27.44379    505.64386    17.239228     23.58988    21.540148    8759.7604 
  165000    401.05598   -3272.1066   -2584.7104   -3272.1066    436.81239    33630.063            0            0   -37338.982   -26.714793   -403.13479    17.394632    23.802532    21.734322     8998.798 
  165500    383.65179   -3227.0655   -2569.4994   -3227.0655    396.45081    33714.851            0            0   -37338.368   -26.645628   -1398.5704     17.40967    23.823109    21.753112    9022.1565 
  166000    407.97885   -3258.3168   -2559.0551   -3258.3168     397.7494    33682.726            0            0   -37338.792   -26.661637   -1461.4335    17.406184     23.81834    21.748757    9016.7391 
  166500    393.62168   -3282.4013   -2607.7472   -3282.4013    461.70487    33595.624            0            0    -37339.73   -26.626479   -92.765821    17.413842    23.828819    21.758325    9028.6448 
  167000    401.87018   -3279.9429   -2591.1511   -3279.9429    476.40371    33582.453            0            0     -37338.8   -26.436422   -17.977245    17.455473    23.885786    21.810342    9093.5535 
  167500     401.1299   -3310.5681   -2623.0452   -3310.5681    504.25874    33522.967            0            0   -37337.794   -27.004933    653.00992    17.332112     23.71698    21.656204     8902.115 
  168000    419.61301   -3235.0536   -2515.8513   -3235.0536    441.73996    33660.053            0            0   -37336.847   -26.279935   -382.62517    17.490051    23.933102    21.853547    9147.7022 
  168500    421.87466    -3292.635   -2569.5562    -3292.635    572.06599    33473.713            0            0   -37338.414   -26.910272    2507.2126    17.352411    23.744757    21.681567    8933.4295 
  169000    389.65155    -3333.983   -2666.1336    -3333.983    448.16013    33556.201            0            0   -37338.344   -26.490984   -1201.0186    17.443481    23.869376    21.795358    9074.8243 
  169500    411.13312   -3321.1487   -2616.4806   -3321.1487    473.78344    33543.067            0            0   -37337.999   -27.120747   -79.451284    17.307405    23.683173    21.625334    8864.1005 
  170000    404.56588   -3307.8397   -2614.4277   -3307.8397    405.24712    33627.351            0            0   -37340.438   -27.676934   -1241.1274    17.190685    23.523455    21.479494    8685.9702 
  170500    415.58364   -3324.7232   -2612.4271   -3324.7232      509.345     33506.64            0            0   -37340.708    -27.00523    812.22259    17.332048    23.716893    21.656125    8902.0172 
  171000    390.96332   -3252.2641   -2582.1663   -3252.2641    487.50158    33595.189            0            0   -37334.954   -26.070693   -16.690084    17.536718     23.99696    21.911857    9221.1214 
  171500    408.49786   -3231.3659   -2531.2145   -3231.3659    532.23644     33577.36            0            0   -37340.963   -26.051596    1635.8479    17.541002    24.002822    21.917209    9227.8807 
  172000    389.76676   -3272.8302   -2604.7834   -3272.8302    484.04564    33580.496            0            0   -37337.371   -26.122288  -0.78215015    17.525165    23.981151    21.897421    9202.9084 
  172500    405.36871   -3315.8803   -2621.0922   -3315.8803    452.54902    33572.618            0            0   -37341.047   -27.179815   -510.08714    17.294858    23.666004    21.609657    8844.8365 
  173000    382.46002   -3336.7363   -2681.2129   -3336.7363    492.45263    33511.487            0            0   -37340.676   -26.761077    187.89951    17.384598    23.788802    21.721785    8983.2342 
  173500    388.13737    -3288.048   -2622.7939    -3288.048     453.4383    33597.828            0            0   -37339.315   -26.398626   -473.57315      17.4638     23.89718    21.820746    9106.5734 
  174000    408.00786   -3293.6748   -2594.3633   -3293.6748    499.69217    33547.889            0            0   -37341.256   -26.184516    140.36582    17.511271    23.962139    21.880061    9181.0375 
  174500    395.23749   -3245.9161   -2568.4925   -3245.9161    435.96518    33657.159            0            0    -37339.04    -26.62909   -562.90214    17.413273     23.82804    21.757614    9027.7597 
  175000    405.81569   -3304.9719   -2609.4177   -3304.9719    462.98748    33569.307            0            0   -37337.267   -27.038383   -465.58802    17.324961    23.707196     21.64727    8891.1022 
  175500     419.4076   -3286.4661   -2567.6158   -3286.4661    442.58832    33610.063            0            0   -37339.117    -25.91683    -1471.839    17.571354    24.044355    21.955133    9275.8653 
  176000    395.33794   -3259.2645   -2581.6688   -3259.2645    500.40056    33574.447            0            0   -37334.112   -26.099163    336.56136    17.530339    23.988232    21.903886    9211.0626 
  176500    408.81134   -3282.8744   -2582.1857   -3282.8744    494.76274    33560.622            0            0   -37338.259   -26.288541     353.0796    17.488143     23.93049    21.851162    9144.7077 
  177000     388.5145   -3305.6375   -2639.7369   -3305.6375    488.96824    33546.004            0            0    -37340.61   -26.392047   -23.619399    17.465251    23.899165    21.822559    9108.8434 
  177500    392.33694   -3305.8651    -2633.413   -3305.8651    475.54016    33557.312            0            0   -37338.718   -27.090296    262.37481    17.313888    23.692043    21.633434    8874.0641 
  178000    402.52243   -3263.5535   -2573.6438   -3263.5535    424.49756    33650.844            0            0   -37338.895   -27.333165   -404.16396    17.262454    23.621662    21.569168    8795.2137 
  178500    399.44899   -3305.6635   -2621.0216   -3305.6635    494.25573    33542.346            0            0   -37342.265   -26.976681    728.27532     17.33816    23.725257    21.663761     8911.438 
  179000    403.13277   -3306.4586   -2615.5028   -3306.4586    540.15466    33488.647            0            0    -37335.26   -26.383189    1197.5064    17.467205     23.90184    21.825001    9111.9015 
  179500    381.17828   -3319.1314   -2665.8049   -3319.1314     519.2775     33502.14            0            0   -37340.549   -26.128448    106.97578    17.523787    23.979266      21.8957    9200.7388 
  180000    407.33936   -3274.0805   -2575.9148   -3274.0805    494.38572    33568.607            0            0   -37337.073   -26.127458    113.36912    17.524009    23.979569    21.895976    9201.0872 
  180500    415.02786   -3294.7665   -2583.4229   -3294.7665    453.99024    33593.639            0            0   -37342.396   -27.145612   -210.35576    17.302119    23.675939    21.618729     8855.981 
  181000    421.44083   -3267.3512    -2545.016   -3267.3512    479.47215    33588.158            0            0   -37334.981   -26.257598   -102.55265     17.49501    23.939887    21.859742    9155.4842 
  181500    408.35923   -3219.3227    -2519.409   -3219.3227    441.79082    33674.534            0            0   -37335.647   -26.003891   -526.92101    17.551722    24.017492    21.930604    9244.8098 
  182000    398.79558   -3293.9743   -2610.4524   -3293.9743    473.18803    33570.728            0            0    -37337.89     -26.5601   -384.08721    17.428337    23.848653    21.776436    9051.2092 
  182500    394.00637   -3284.2413   -2608.9279   -3284.2413    522.11741    33533.706            0            0   -37340.065    -25.66508    455.18254     17.62862    24.122717    22.026686    9366.8528 
  183000      401.835   -3279.9517   -2591.2202   -3279.9517    442.22039    33616.314            0            0   -37338.486   -26.342015   -909.23497    17.476301    23.914286    21.836366    9126.1439 
  183500    417.88966   -3269.7623   -2553.5137   -3269.7623    471.79007    33599.071            0            0   -37340.623   -25.759279   -268.19266    17.607105    24.093276    21.999804    9332.5992 
  184000    394.99153   -3240.0152   -2563.0132   -3240.0152    513.98546    33582.147            0            0   -37336.148   -25.830262    702.65236    17.590961    24.071186    21.979633    9306.9525 
  184500    406.58165   -3285.3508   -2588.4837   -3285.3508    464.61071    33586.947            0            0   -37336.909   -26.645296    63.068205    17.409742    23.823208    21.753202    9022.2688 
  185000    394.89215   -3294.5046   -2617.6729   -3294.5046    465.48301    33577.307            0            0   -37337.295    -26.26868   -562.03584    17.492549     23.93652    21.856668    9151.6218 
[...]
  756000    276.25078   -3867.1318   -3393.6474   -3867.1318    788.17699    32968.478            0            0   -37623.786   -27.411019     1255.415    17.246096    23.599277    21.548728     8770.233 
  756500    267.50574   -3841.9608   -3383.4652   -3841.9608    720.10449     33064.79            0            0   -37626.856   -27.167391   -461.31498    17.297495    23.669611    21.612951    8848.8816 
  757000      243.157   -3923.1351   -3506.3723   -3923.1351    759.45281    32942.895            0            0   -37625.483   -27.206117    -155.3715    17.289283    23.658375    21.602691    8836.2856 
  757500    283.83318   -3849.8809   -3363.4005   -3849.8809    718.46612    33056.842            0            0   -37625.189   -27.216623    -382.6172    17.287058     23.65533    21.599911    8832.8748 
  758000    265.86012    -3831.908   -3376.2328    -3831.908    761.00499    33030.363            0            0   -37623.276   -27.338824    1057.0302    17.261263    23.620032     21.56768    8793.3929 
  758500    269.47065    -3842.308   -3380.4445    -3842.308    728.60635    33053.169            0            0   -37624.084    -27.31333   -37.337529    17.266632    23.627379    21.574388    8801.6008 
  759000    283.84397    -3838.006   -3351.5072    -3838.006    744.15307    33039.403            0            0   -37621.562   -27.115035    350.40281     17.30862    23.684835    21.626852    8865.9675 
  759500    258.61491   -3861.7762   -3418.5191   -3861.7762    742.11482     33017.67            0            0   -37621.561   -27.387427    213.68005    17.251046    23.606051    21.554914    8777.7877 
  760000    264.36927   -3846.0296   -3392.9097   -3846.0296    689.97326    33088.757            0            0    -37624.76   -27.120177   -1053.8342    17.307526    23.683338    21.625485    8864.2865 
  760500    269.20584   -3828.2009   -3366.7913   -3828.2009    733.90911    33063.784            0            0   -37625.894   -27.480247    370.21897    17.231601    23.579443    21.530618    8748.1392 
  761000    261.49424   -3851.7306   -3403.5384   -3851.7306    730.74478    33042.083            0            0   -37624.558   -27.524168    170.99836    17.222431    23.566895     21.51916    8734.1795 
  761500    263.44853   -3859.5349   -3407.9932   -3859.5349    757.73957    33008.407            0            0   -37625.682   -27.416892    530.91214    17.244864    23.597592     21.54719    8768.3544 
  762000    268.02663    -3790.342   -3330.9536    -3790.342    694.65702    33137.828            0            0   -37622.827   -27.326001   -49.480707    17.263963    23.623726    21.571053    8797.5192 
  762500    269.22895   -3841.5243   -3380.0751   -3841.5243    661.22276    33122.098            0            0   -37624.846   -27.903869   -1087.2615    17.143956    23.459511    21.421106    8615.3295 
  763000    274.30068   -3826.8748   -3356.7328   -3826.8748    660.37237    33132.896            0            0   -37620.144   -27.244869   -1490.3417    17.281082    23.647153    21.592444    8823.7175 
  763500    264.17185   -3839.8727   -3387.0912   -3839.8727    686.49038    33096.222            0            0   -37622.585    -27.96587   -460.21848    17.131277    23.442161    21.405264     8596.229 
  764000    266.56336   -3863.6979   -3406.8174   -3863.6979    738.23054     33023.16            0            0   -37625.088   -28.102655    570.61666    17.103437    23.404066    21.370479    8554.3884 
  764500    268.62335   -3863.1665   -3402.7553   -3863.1665    719.21218    33043.044            0            0   -37625.423   -28.636493    497.65339     16.99649    23.257721     21.23685    8394.9184 
  765000    281.96584   -3870.1161   -3386.8363   -3870.1161    711.62408    33039.698            0            0   -37621.439   -28.323647    177.79622    17.058839    23.343038    21.314754    8487.6438 
  765500    281.38437   -3798.3172    -3316.034   -3798.3172    710.16835    33115.329            0            0   -37623.815   -27.971585    678.44789     17.13011    23.440564    21.403806    8594.4725 
  766000    279.15564   -3834.3193   -3355.8561   -3834.3193    715.92738    33074.752            0            0   -37624.999   -27.736186    237.99648    17.178435    23.506692    21.464188    8667.4146 
  766500    257.21866     -3817.72    -3376.856     -3817.72    703.72011     33100.73            0            0    -37622.17   -28.020021    168.16139    17.120234     23.42705    21.391466    8579.6162 
  767000    258.59243    -3855.525   -3412.3064    -3855.525    697.27143    33072.508            0            0   -37625.304   -27.987706   -542.20928     17.12682    23.436063    21.399696    8589.5221 
  767500    280.10669   -3858.0491   -3377.9559   -3858.0491    677.26752    33094.643            0            0    -37629.96   -27.968308   -911.21326    17.130779     23.44148    21.404642    8595.4796 
  768000    276.52872   -3906.3527   -3432.3919   -3906.3527     727.3061    32990.346            0            0   -37624.005   -28.262474    97.600128    17.071137    23.359867    21.330121    8506.0148 
  768500    287.35066   -3869.1312    -3376.622   -3869.1312    700.96157    33053.547            0            0   -37623.639   -28.175378   -69.366404    17.088709    23.383912    21.352077    8532.3086 
  769000    250.68978   -3862.8725   -3433.1988   -3862.8725    743.24859    33016.837            0            0   -37622.958   -27.799398    697.45525    17.165405    23.488861    21.447907    8647.7062 
  769500    281.56956   -3873.5736    -3390.973   -3873.5736    738.79572    33014.418            0            0   -37626.787   -27.327832   -43.190778    17.263577    23.623199    21.570571      8796.93 
  770000    272.11209   -3854.5162   -3388.1254   -3854.5162    734.70883    33033.574            0            0   -37622.799    -27.57387     57.19346    17.212077    23.552726    21.506222    8718.4359 
  770500    290.92379   -3854.0156   -3355.3822   -3854.0156    729.43936    33038.365            0            0    -37621.82   -27.322856   -121.28568    17.264625    23.624632     21.57188    8798.5319 
  771000    270.85106     -3886.49   -3422.2606     -3886.49    760.02098    32978.091            0            0   -37624.602   -27.728043    620.14313    17.180117    23.508993    21.466289      8669.96 
  771500    268.78982   -3896.0059   -3435.3094   -3896.0059    753.75455    32975.102            0            0   -37624.863   -27.367681    26.496673    17.255194    23.611727    21.560097    8784.1211 
  772000    257.78854   -3852.1008   -3410.2601   -3852.1008    712.55799    33060.167            0            0   -37624.826    -27.43137   -470.07118     17.24183     23.59344    21.543398    8763.7264 
  772500    260.07612   -3854.1812   -3408.4196   -3854.1812     746.7507    33023.324            0            0   -37624.256   -27.334955    359.82728    17.262077    23.621146    21.568697    8794.6375 
  773000    278.49372   -3820.1905   -3342.8618   -3820.1905    685.12271    33118.838            0            0   -37624.151   -27.991417   -291.64489    17.126064    23.435027     21.39875    8588.3834 
  773500    277.25042   -3923.2991   -3448.1014   -3923.2991    748.41666    32955.079            0            0   -37626.795   -27.899653    141.93276    17.144819    23.460692    21.422185    8616.6312 
  774000    266.09995   -3839.6608   -3383.5746   -3839.6608    696.44235    33090.129            0            0   -37626.232   -27.523625   -588.39101    17.222544     23.56705    21.519301    8734.3517 
  774500    270.26299   -3871.2269   -3408.0054   -3871.2269    739.82702    33015.251            0            0   -37626.305   -27.691255     433.7682    17.187721    23.519399    21.475791    8681.4781 
  775000    279.72919   -3842.2147   -3362.7685   -3842.2147    716.92474    33067.304            0            0   -37626.444   -27.900965    507.92331     17.14455    23.460325    21.421849     8616.226 
  775500    258.30983   -3878.0908   -3435.3565   -3878.0908    737.63004    33008.629            0            0    -37624.35   -28.046696    415.72786    17.114805    23.419621    21.384682     8571.456 
  776000    275.72786   -3867.4669   -3394.8788   -3867.4669    776.49311    32979.854            0            0   -37623.814   -27.767993    1394.2216    17.171874    23.497713    21.455989    8657.4864 
  776500    256.31524   -3890.7563   -3451.4408   -3890.7563    714.63393    33020.901            0            0   -37626.291   -27.253075   -778.65469    17.279348    23.644779    21.590276    8821.0604 
  777000    260.76156    -3840.627   -3393.6906    -3840.627    710.55102    33071.331            0            0   -37622.509   -27.009242   -569.38065     17.33119    23.715719    21.655052    8900.6948 
  777500    239.50742   -3818.7601   -3408.2526   -3818.7601    659.53236    33147.118            0            0    -37625.41   -27.461168    -1328.749    17.235591    23.584903    21.535603     8754.217 
  778000    278.51124    -3844.296   -3366.9373    -3844.296    743.43761    33038.561            0            0   -37626.295   -27.463574    765.70704    17.235088    23.584214    21.534974    8753.4499 
  778500    263.72864    -3869.961   -3417.9392    -3869.961    761.81908    32990.454            0            0   -37622.234   -27.441725    790.89661     17.23966    23.590472    21.540688    8760.4194 
  779000    258.72285   -3860.5836   -3417.1415   -3860.5836    745.26769    33017.447            0            0   -37623.299   -27.837641    616.53793    17.157541      23.4781     21.43808    8635.8259 
  779500    256.49753   -3904.7257   -3465.0977   -3904.7257    763.13226    32957.635            0            0   -37625.493   -27.513047    275.56884    17.224751     23.57007    21.522059      8737.71 
  780000    270.22046   -3860.2509   -3397.1023   -3860.2509    673.19532    33089.176            0            0   -37622.622   -27.788304   -1225.3773    17.167689    23.491987     21.45076    8651.1584 
  780500    283.39141   -3839.9343   -3354.2111   -3839.9343    680.67973     33105.58            0            0   -37626.194   -26.760406   -1238.6465    17.384743       23.789    21.721966    8983.4595 
  781000     265.5169   -3850.4707   -3395.3838   -3850.4707    783.31708     32989.91            0            0   -37623.698   -27.806292    2057.8226    17.163986     23.48692    21.446134    8645.5621 
  781500    272.52764   -3902.1409   -3435.0379   -3902.1409    759.12408    32965.885            0            0    -37627.15   -27.381785    417.92456    17.252231    23.607673    21.556394    8779.5966 
  782000    257.03245   -3842.8642   -3402.3194   -3842.8642    723.43602    33057.628            0            0   -37623.929   -26.841694   -439.15368    17.367176    23.764962    21.700017    8956.2538 
  782500    276.09824   -3861.6985   -3388.4756   -3861.6985    752.69121     33010.28            0            0    -37624.67   -26.713082     314.4598    17.395003     23.80304    21.734786    8999.3743 
  783000    271.92966   -3888.4042   -3422.3261   -3888.4042    776.64581    32955.969            0            0   -37621.019    -27.73317    1279.5139    17.179058    23.507544    21.464966    8668.3571 
  783500    269.42401    -3858.268   -3396.4845    -3858.268    719.60963    33047.733            0            0   -37625.611   -27.469004   -138.97408    17.233952     23.58266    21.533555    8751.7197 
  784000    275.09883   -3839.2105   -3367.7005   -3839.2105    715.05627    33070.376            0            0   -37624.642   -27.457579    76.986533    17.236342     23.58593    21.536541    8755.3613 
  784500    255.90962   -3818.2484   -3379.6281   -3818.2484    673.16851    33133.606            0            0   -37625.023    -27.09885    -1246.566    17.312066     23.68955    21.631157    8871.2628 
  785000    263.31063    -3816.811   -3365.5056    -3816.811    687.14639    33120.484            0            0   -37624.441   -27.576676   -354.58823    17.211493    23.551927    21.505493    8717.5489 
  785500    273.56305   -3836.8462   -3367.9685   -3836.8462    651.79384    33137.455            0            0   -37626.095    -27.80281   -1394.1605    17.164702      23.4879    21.447029    8646.6447 
  786000    281.11127   -3868.1312   -3386.3161   -3868.1312    738.22322    33019.116            0            0   -37625.471   -27.998933    450.67928    17.124531     23.43293    21.396835    8586.0779 
  786500    256.82157   -3885.1796   -3444.9962   -3885.1796     757.7389    32984.002            0            0    -37626.92   -28.166821    1126.4409     17.09044     23.38628    21.354239    8534.9007 
  787000    254.01764   -3844.7281   -3409.3506   -3844.7281    738.66541    33041.537            0            0   -37624.931   -28.209447    957.50373    17.081827    23.374495    21.343477     8522.004 
  787500    263.48712   -3826.7385   -3375.1306   -3826.7385    731.62267    33067.587            0            0   -37625.949   -28.209346    942.82118    17.081847    23.374523    21.343503    8522.0345 
  788000    275.68307   -3851.5736   -3379.0623   -3851.5736    739.39938    33033.398            0            0   -37624.371   -27.965838    826.87862    17.131284     23.44217    21.405273     8596.239 
  788500    266.89193   -3855.1759   -3397.7323   -3855.1759    675.87643    33093.688            0            0    -37624.74   -27.561273   -1087.3931    17.214698    23.556314    21.509498    8722.4208 
  789000    253.17494   -3835.4993   -3401.5662   -3835.4993    709.36899    33080.023            0            0   -37624.892   -27.764419   -26.262958     17.17261    23.498721     21.45691     8658.601 
  789500    270.43204   -3822.2052    -3358.694   -3822.2052    718.04181    33082.372            0            0   -37622.619   -27.675069    292.09603    17.191071    23.523983    21.479976    8686.5555 
  790000     262.5918   -3842.2038   -3392.1304   -3842.2038    757.80335    33026.352            0            0   -37626.359   -28.133132    1626.9604    17.097259    23.395611    21.362759    8545.1211 
  790500    289.04893   -3824.4767   -3329.0567   -3824.4767    685.73777    33114.522            0            0   -37624.736   -27.293252   -711.27167    17.270865    23.633171    21.579677    8808.0756 
  791000    269.89576   -3816.3874   -3353.7953   -3816.3874    658.95166    33145.723            0            0   -37621.062    -27.20345   -1543.7003    17.289848    23.659148    21.603397    8837.1522 
  791500    265.81713   -3835.8614   -3380.2599   -3835.8614     733.4015    33053.869            0            0   -37623.132   -27.770781    739.60891    17.171299    23.496927    21.455271    8656.6171 
  792000    261.29254   -3833.2517   -3385.4052   -3833.2517    730.41702    33061.975            0            0   -37625.644   -27.426553     236.2362    17.242839    23.594821    21.544659    8765.2656 
  792500    261.07949   -3843.8339   -3396.3526   -3843.8339    730.38702    33051.571            0            0   -37625.792   -27.173615    -206.6851    17.296174    23.667804      21.6113    8846.8548 
  793000    275.33612   -3865.9046    -3393.988   -3865.9046    769.71719     32988.35            0            0   -37623.972   -27.766669    1427.1039    17.172147    23.498087     21.45633    8657.8994 
  793500     283.7041   -3813.8659   -3327.6068   -3813.8659    685.26228    33125.367            0            0   -37624.495   -27.775045    27.482151     17.17042    23.495724    21.454173    8655.2884 
  794000    251.65495   -3838.9091   -3407.5811   -3838.9091    832.75308    32950.051            0            0   -37621.713   -27.633888    2815.8391    17.199607    23.535663    21.490641    8699.5005 
  794500    259.47227   -3837.6263   -3392.8997   -3837.6263     727.1641    33058.919            0            0   -37623.709   -27.609116    400.92908    17.204749    23.542699    21.497067    8707.3059 
  795000    267.94811   -3846.6883   -3387.4344   -3846.6883    731.69085    33044.595            0            0   -37622.974   -27.790667     290.3601    17.167202    23.491321    21.450152    8650.4228 
  795500     282.4189    -3836.113   -3352.0566    -3836.113    715.19411     33071.94            0            0   -37623.247   -27.841887    134.80466    17.156669    23.476907    21.436991    8634.5091 
  796000    270.27836   -3852.8758   -3389.6279   -3852.8758    708.23998    33063.967            0            0   -37625.083   -28.122445    130.17704    17.099424    23.398575    21.365465    8548.3685 
  796500    269.78815   -3825.0861   -3362.6784   -3825.0861    684.96691    33112.056            0            0   -37622.109   -27.477173   -564.94832    17.232244    23.580323    21.531421    8749.1176 
  797000    257.88616   -3860.3417   -3418.3336   -3860.3417    670.02943    33090.226            0            0   -37620.598   -27.345721   -1638.9146    17.259812    23.618046    21.565866    8791.1752 
  797500    272.53764   -3806.1239   -3339.0038   -3806.1239    709.07523    33111.243            0            0   -37626.442   -27.669018    247.75667    17.192324    23.525698    21.481542    8688.4552 
  798000    255.71786   -3839.3244   -3401.0327   -3839.3244    695.27181        33091            0            0   -37625.596   -28.196241   -92.798349    17.084494    23.378144    21.346809    8525.9955 
  798500    284.62694   -3816.1006   -3328.2598   -3816.1006    674.85209    33133.666            0            0   -37624.619   -27.280229     -603.923    17.273613    23.636931    21.583111    8812.2802 
  799000    253.41267   -3819.8718   -3385.5311   -3819.8718    715.52535    33089.886            0            0   -37625.283   -27.410542    23.388626    17.246195    23.599414    21.548853    8770.3855 
  799500     268.2904   -3828.8136    -3368.973   -3828.8136    730.01888    33063.657            0            0    -37622.49    -28.04639    835.85209    17.114867    23.419706     21.38476    8571.5496 
  800000    278.29158   -3878.6406   -3401.6583   -3878.6406    746.32659    32996.138            0            0   -37621.105   -28.114031    796.70817     17.10113    23.400909    21.367596    8550.9268 
Loop time of 855.911 on 8 procs for 500000 steps with 864 atoms

Performance: 100.945 ns/day, 0.238 hours/ns, 584.173 timesteps/s
99.7% CPU use with 8 MPI tasks x 1 OpenMP threads

MPI task timing breakdown:
Section |  min time  |  avg time  |  max time  |%varavg| %total
---------------------------------------------------------------
Pair    | 418.98     | 481.71     | 550.26     | 206.3 | 56.28
Bond    | 0.11352    | 0.12421    | 0.14897    |   3.2 |  0.01
Kspace  | 160.68     | 231.02     | 296.56     | 300.8 | 26.99
Neigh   | 25.698     | 26.045     | 26.527     |   6.0 |  3.04
Comm    | 38.66      | 42.328     | 46.329     |  39.2 |  4.95
Output  | 2.2392     | 2.2429     | 2.2647     |   0.6 |  0.26
Modify  | 62.523     | 68.708     | 73.062     |  49.6 |  8.03
Other   |            | 3.735      |            |       |  0.44

Nlocal:    108 ave 117 max 90 min
Histogram: 1 0 0 0 0 2 0 2 2 1
Nghost:    3154.25 ave 3214 max 3060 min
Histogram: 1 0 0 0 2 0 0 3 1 1
Neighs:    28872.8 ave 31944 max 24601 min
Histogram: 1 0 1 1 0 1 0 1 1 2

Total # of neighbors = 230982
Ave neighs/atom = 267.34
Ave special neighs/atom = 2
Neighbor list builds = 28950
Dangerous builds = 541

unfix		1
unfix		2
unfix		3

write_data	data.final
PPPM initialization ...
  extracting TIP4P info from pair style
  using 12-bit tables for long-range coulomb (src/kspace.cpp:323)
  G vector (1/distance) = 0.327655
  grid = 15 16 15
  stencil order = 5
  estimated absolute RMS force accuracy = 0.0304753
  estimated relative force accuracy = 9.17754e-05
  using double precision FFTW3
  3d grid and FFT values/proc = 3150 512
Total wall time: 0:23:14
