LAMMPS data file via write_data, version 19 Sep 2019, timestep = 500000

48 atoms
2 atom types
32 bonds
1 bond types
16 angles
1 angle types

0.0 8.86708885 xlo xhi # Mean values at 300K
0.0 8.12791705 ylo yhi
0.0 7.36655049 zlo zhi

Masses

1 1.00794
2 15.9994

Atoms # full

7 3 2 -1.1794000000000000e+00 2.0697063010405943e+00 2.7028243509279108e+00 5.3169349983199321e-01 0 0 0
36 12 1 5.8970000000000000e-01 3.7585797418228322e+00 1.9919749170024958e+00 2.5891278421891428e-01 0 0 1
9 3 1 5.8970000000000000e-01 1.9633479701869829e+00 2.8259244378698014e+00 1.4754774012706493e+00 0 0 0
37 13 2 -1.1794000000000000e+00 2.2136720626084099e+00 3.2076125405741540e+00 3.3894999943999964e+00 0 0 0
8 3 1 5.8970000000000000e-01 2.2091057797022184e+00 3.5858999161338527e+00 1.8856241357933440e-01 0 0 0
39 13 1 5.8970000000000000e-01 3.0728414839549276e+00 2.8338619864602896e+00 3.5837810974273170e+00 0 0 0
38 13 1 5.8970000000000000e-01 1.5933310022762408e+00 2.6138775816879112e+00 3.8125533245952359e+00 0 0 0
32 11 1 5.8970000000000000e-01 8.6813108943286421e-01 1.7702366551615658e+00 7.4394632624712536e+00 1 0 0
18 6 1 5.8970000000000000e-01 4.5018920260125510e+00 1.6424993101108010e+00 5.5079395209240580e+00 0 0 0
16 6 2 -1.1794000000000000e+00 4.6162777683589731e+00 1.9355252106276766e+00 4.6033737752639325e+00 0 0 0
34 12 2 -1.1794000000000000e+00 4.5770646599189355e+00 1.7142387292571133e+00 7.6070643713048067e+00 0 0 0
14 5 1 5.8970000000000000e-01 4.6986992157325780e-01 6.7494214681370401e-01 3.9390442844220557e+00 0 0 0
26 9 1 5.8970000000000000e-01 2.9912253676461060e+00 5.8995118992489513e+00 7.4129543367066848e+00 0 0 0
47 16 1 5.8970000000000000e-01 4.1172469749682126e+00 6.7142878169188167e+00 3.3715172313610995e+00 0 0 0
27 9 1 5.8970000000000000e-01 1.4788177068932851e+00 5.8743682263647621e+00 7.4535062086540904e+00 0 0 0
19 7 2 -1.1794000000000000e+00 2.2402391494757938e+00 5.8185783925177885e+00 3.9848484406524647e+00 0 0 0
20 7 1 5.8970000000000000e-01 2.3234824230314928e+00 4.9329548084382893e+00 3.6302137367244836e+00 0 0 0
21 7 1 5.8970000000000000e-01 2.2372376822186379e+00 5.6975431308902849e+00 4.9348791722413932e+00 0 0 0
25 9 2 -1.1794000000000000e+00 2.2366551336710585e+00 5.3640798998120705e+00 7.1683053564216337e+00 0 0 0
5 2 1 5.8970000000000000e-01 4.4163444743068947e+00 8.2025298888765725e+00 3.2866691227775957e-01 0 0 0
45 15 1 5.8970000000000000e-01 1.1095264999315395e+00 6.7300550749871304e+00 3.0687751988565610e+00 1 0 0
6 2 1 5.8970000000000000e-01 4.5012000921423088e+00 7.2484903840043486e+00 1.5019987040395792e+00 0 0 0
4 2 2 -1.1794000000000000e+00 4.4880675042319051e+00 7.2723760780702511e+00 5.4467488609812309e-01 0 0 0
10 4 2 -1.1794000000000000e+00 6.8750787702745297e+00 3.2376567053903362e+00 5.8085206575063753e-01 0 0 0
11 4 1 5.8970000000000000e-01 6.7525607502284570e+00 4.1174697191758680e+00 2.2312927333959431e-01 0 0 0
12 4 1 5.8970000000000000e-01 6.7661807086320263e+00 3.3454668189025298e+00 1.5262358346419851e+00 0 0 0
35 12 1 5.8970000000000000e-01 5.2135926245634590e+00 2.3797476440327268e+00 1.0930746750283493e-01 0 0 1
41 14 1 5.8970000000000000e-01 5.9319971648431009e+00 3.0927069169805463e+00 3.6805985710682050e+00 0 0 0
42 14 1 5.8970000000000000e-01 7.4060275040507992e+00 3.1042728582606434e+00 4.0225098069016703e+00 0 0 0
40 14 2 -1.1794000000000000e+00 6.7486898644952076e+00 3.5545307537671835e+00 3.4920361917471845e+00 0 0 0
33 11 1 5.8970000000000000e-01 8.0053589499638846e+00 1.5244839993831125e+00 7.6826935669836356e+00 0 0 0
13 5 2 -1.1794000000000000e+00 8.6350702186811379e+00 1.3944849845659910e+00 4.3870342363836041e+00 -1 0 0
15 5 1 5.8970000000000000e-01 8.7851187474751633e+00 1.2274948617855099e+00 5.3180475714101156e+00 -1 0 0
31 11 2 -1.1794000000000000e+00 8.7255829624161958e+00 1.2877636816020359e+00 7.0984565850695667e+00 0 0 0
17 6 1 5.8970000000000000e-01 4.9560190496230154e+00 1.1675019267363935e+00 4.1432705186292118e+00 0 0 0
23 8 1 5.8970000000000000e-01 6.6826249775881905e+00 5.2138079796007908e+00 3.9935980111215712e+00 0 0 0
29 10 1 5.8970000000000000e-01 7.5686133434114424e+00 6.1652694763912752e+00 7.5541914793755733e+00 0 0 0
48 16 1 5.8970000000000000e-01 5.5961687660968638e+00 6.9737344974843092e+00 3.5594730914107644e+00 0 0 0
22 8 2 -1.1794000000000000e+00 6.8560257399541404e+00 6.0605289513836063e+00 4.4058852272963520e+00 0 0 0
30 10 1 5.8970000000000000e-01 6.0842685249779569e+00 6.4571097196568985e+00 7.5195725348728857e+00 0 0 0
24 8 1 5.8970000000000000e-01 6.8918458191977665e+00 5.8682884886186280e+00 5.3434217851392312e+00 0 0 0
28 10 2 -1.1794000000000000e+00 6.7324892447955440e+00 5.8003431096846532e+00 7.2652949392322075e+00 0 0 0
44 15 1 5.8970000000000000e-01 8.2612096583421497e+00 6.8589676336264231e+00 3.4500281318473447e+00 0 0 0
3 1 1 5.8970000000000000e-01 8.8183408622866928e+00 7.2146206248952707e+00 1.0789003826368324e+00 -1 0 0
1 1 2 -1.1794000000000000e+00 8.9989250803429979e+00 7.0797949449951716e+00 1.4810149161017799e-01 -1 0 0
2 1 1 5.8970000000000000e-01 8.7919620200650517e+00 7.9205828254247166e+00 7.4979466823824126e+00 -1 0 -1
43 15 2 -1.1794000000000000e+00 8.9149915285381205e+00 7.1920595082576648e+00 2.8353040590607872e+00 0 0 0
46 16 2 -1.1794000000000000e+00 4.7796611938864197e+00 7.4018853728668788e+00 3.3029334694073897e+00 0 0 0

Velocities

7 4.2129504395938874e-03 7.0235671924432962e-03 -4.5401903456474728e-03
36 6.2491084660514203e-03 5.4878573583582307e-03 6.9773743994285620e-03
9 7.9625145126660090e-03 -8.1068691592773995e-03 -2.3571601877388809e-03
37 6.9424124532325793e-03 -4.6420610625907028e-04 4.2738000354467075e-03
8 -2.2075376180876781e-03 1.2894401096888029e-02 8.5094313698145206e-03
39 5.3887245485089658e-03 -3.8288516894988025e-03 5.4457103554826219e-03
38 3.3604120941178616e-03 -3.2738447636243397e-03 -4.9353961261502126e-03
32 -2.3832655128400680e-03 4.9465393977302079e-03 -1.7910149217783795e-02
18 -1.4164096424633612e-02 -6.0833823306890083e-03 -7.9719759808289745e-03
16 -1.6148108147460592e-03 -4.2448188061663525e-03 -5.5805025130999733e-03
34 2.3382284052418873e-03 -6.0033051706924034e-04 3.0255319805559794e-03
14 -1.4340505011306322e-02 -1.4227314253222654e-02 2.7627505988496431e-03
26 -1.3940113228939498e-02 2.4300123586829075e-02 -7.0291741272805416e-04
47 1.4982592561868921e-02 -2.5673728262588777e-02 -3.2906576234761765e-02
27 -1.3413997901006242e-02 -1.8510734950994853e-02 1.1616898571008482e-02
19 3.0997833099846007e-06 -5.1127055561906824e-03 -5.8771986190215911e-03
20 5.7347355931183881e-03 -8.6898537289280299e-03 4.9016247277582402e-03
21 9.9754929806625744e-03 7.0257161887554744e-03 -4.5614669689337103e-03
25 -1.1942215512613383e-03 5.6183115987279222e-03 3.5804581786734040e-04
5 7.3196000791087732e-03 4.1536851509046697e-03 -9.6196526780862237e-03
45 -1.2541835738897398e-02 -1.9532373164831727e-02 -2.2086943047880420e-02
6 1.3132773793810618e-03 2.1737588086769923e-02 4.5536202880201194e-03
4 -4.5661500297894562e-03 6.8388105899191845e-03 4.5989238513519078e-03
10 5.6582418587446557e-03 7.1918515222796622e-03 -3.7951011837908475e-04
11 -8.3498630362887540e-03 1.1529018195552441e-02 1.5381510197542931e-02
12 -2.4297115690096473e-03 -1.2351554459285369e-02 7.7083661655314437e-04
35 8.4729835096411417e-03 -4.7986468173838509e-03 -1.3389342237481480e-03
41 -7.0739026934576611e-03 1.5046230320878923e-02 2.5052950706713067e-02
42 -1.1512425643614148e-03 -6.9054123650625944e-03 8.9343593036065021e-04
40 -8.2148059451403271e-04 -5.7375757003563866e-03 1.4693916774588993e-03
33 3.9037179962924215e-03 -4.6722658700249419e-03 1.4153548112469001e-02
13 1.6412171064015412e-03 -4.2714817828314530e-03 2.0180024909720036e-03
15 1.4039440605697654e-02 3.4621843543353541e-03 1.2162163570158490e-03
31 -6.6258502904439579e-03 -6.4247797223221078e-04 -8.4013718323032211e-04
17 2.8333260200684433e-02 4.0439798089016137e-03 2.7394010954872872e-03
23 2.2801349939030074e-02 -1.6012209115874608e-02 1.2995712822313224e-02
29 3.7075543023255110e-03 -5.5019863685485341e-03 -4.6152192634212452e-03
48 4.3427413927155309e-03 1.2445050720506752e-02 2.8315511090313094e-03
22 -5.5959998265756664e-03 -6.0295403736224315e-03 3.4110770692286343e-03
30 6.5259672855360494e-03 1.1954197548984843e-02 1.7294424740806245e-03
24 8.8060516988623452e-03 4.3014073903733033e-03 4.6931678126337587e-03
28 -2.3045496022756559e-03 3.4341866235769090e-03 9.5487806877209006e-04
44 -6.0515206970026192e-03 -5.8328423988737175e-03 -1.2171254793863004e-05
3 -1.3786027577022144e-03 -1.1876203870920933e-02 -5.6482309919480339e-03
1 8.6869132693316638e-03 -3.7934398908050568e-04 -5.1804891900962503e-03
2 -1.7634853641490662e-02 -4.8626459551938811e-03 -1.1734552000991776e-03
43 -6.7851653220988521e-03 4.5464842124702688e-03 4.8431971571485880e-03
46 -2.8827552726291236e-03 -4.8137802095216927e-03 -3.2720552746133293e-03

Bonds

1 1 7 8
2 1 7 9
3 1 37 39
4 1 37 38
5 1 16 17
6 1 16 18
7 1 34 35
8 1 34 36
9 1 19 20
10 1 19 21
11 1 25 26
12 1 25 27
13 1 4 5
14 1 4 6
15 1 10 11
16 1 10 12
17 1 40 41
18 1 40 42
19 1 13 14
20 1 13 15
21 1 31 33
22 1 31 32
23 1 22 23
24 1 22 24
25 1 28 30
26 1 28 29
27 1 1 2
28 1 1 3
29 1 43 44
30 1 43 45
31 1 46 47
32 1 46 48

Angles

1 1 8 7 9
2 1 38 37 39
3 1 17 16 18
4 1 35 34 36
5 1 20 19 21
6 1 26 25 27
7 1 5 4 6
8 1 11 10 12
9 1 41 40 42
10 1 14 13 15
11 1 32 31 33
12 1 23 22 24
13 1 29 28 30
14 1 2 1 3
15 1 44 43 45
16 1 47 46 48
