LAMMPS data file via write_data, version 19 Sep 2019, timestep = 500000

864 atoms
2 atom types
576 bonds
1 bond types
288 angles
1 angle types

0.0 17.7164531 xlo xhi
0.0 24.2429068 ylo yhi
0.0 22.1364328 zlo zhi

Masses

1 1.00794
2 15.9994

Atoms # full

2 1 1 5.8970000000000000e-01 1.4499916727448509e-01 2.7756329183980504e+00 4.0326318333949196e+00 0 0 0
28 10 2 -1.1794000000000000e+00 4.5343122053855573e+00 2.0003955111193235e+00 3.9931390349805480e+00 0 0 0
29 10 1 5.8970000000000000e-01 4.3997586950655094e+00 2.9377004377939806e+00 3.8541080536992327e+00 0 0 0
246 82 1 5.8970000000000000e-01 4.5318782192298404e+00 4.8615877034145401e+00 1.4854445150648627e+00 0 0 0
327 109 1 5.8970000000000000e-01 2.1008800367307074e+00 4.6645735304393199e-01 1.0380385275478095e+00 0 0 0
354 118 1 5.8970000000000000e-01 6.8235316015313332e+00 1.0182654492678707e+00 1.5494511676827070e+00 0 0 0
433 145 2 -1.1794000000000000e+00 2.3637682771667943e+00 6.4558980143988975e-01 2.8365109489214784e+00 0 0 0
434 145 1 5.8970000000000000e-01 3.1396177798629044e+00 1.1132090828694152e+00 3.1457874249170290e+00 0 0 0
435 145 1 5.8970000000000000e-01 1.6280861967323990e+00 1.1932855231136950e+00 3.1104757786653092e+00 0 0 0
462 154 1 5.8970000000000000e-01 6.3244620109145231e+00 1.2298472529161342e+00 3.4579401968657564e+00 0 0 0
568 190 2 -1.1794000000000000e+00 4.3531650708923122e+00 4.8030521126844707e+00 3.2505078006383381e+00 0 0 0
1 1 2 -1.1794000000000000e+00 2.8355787155634588e-01 1.8837857537940690e+00 4.3510316807624250e+00 0 0 0
219 73 1 5.8970000000000000e-01 -4.9484626027308437e-02 4.4238901697657456e+00 1.3188629508660066e+00 0 0 0
541 181 2 -1.1794000000000000e+00 2.3048086228201831e-01 4.6332987336057512e+00 3.2899153251175726e+00 0 0 0
3 1 1 5.8970000000000000e-01 2.3029030549086010e-01 1.9581267339473176e+00 5.3037745389252953e+00 0 0 0
460 154 2 -1.1794000000000000e+00 7.1534270675571756e+00 7.8433128240687922e-01 3.2827718133853256e+00 0 0 0
542 181 1 5.8970000000000000e-01 9.7035687063798748e-01 5.0643426291285847e+00 3.7177984464920146e+00 0 0 0
569 190 1 5.8970000000000000e-01 5.0967773303445219e+00 5.1695111342900413e+00 3.7290561493160315e+00 0 0 0
570 190 1 5.8970000000000000e-01 3.5956103888969180e+00 5.2907668331122819e+00 3.5737483774950611e+00 0 0 0
30 10 1 5.8970000000000000e-01 4.5082001257787860e+00 1.8926743722938151e+00 4.9438245080527388e+00 0 0 0
325 109 2 -1.1794000000000000e+00 2.0343472096745820e+00 5.9924864439994574e-01 9.2508977178151944e-02 0 0 0
543 181 1 5.8970000000000000e-01 -5.1286077220326609e-01 5.2138422766638852e+00 3.4530860956447711e+00 0 0 0
461 154 1 5.8970000000000000e-01 7.8200887534527608e+00 1.3635834244548382e+00 3.6518566043245744e+00 0 0 0
792 264 1 5.8970000000000000e-01 4.9647058596130096e+00 2.1101049236670897e+00 2.0428720229031661e-01 0 0 1
352 118 2 -1.1794000000000000e+00 6.3844317295622854e+00 1.1662829529274656e+00 7.1193369967867071e-01 0 0 0
353 118 1 5.8970000000000000e-01 6.5256773510548705e+00 3.5716215297921489e-01 2.2065479368768923e-01 0 0 0
245 82 1 5.8970000000000000e-01 4.4435226693784733e+00 4.0288709991003904e+00 2.2442133761121347e-01 0 0 0
217 73 2 -1.1794000000000000e+00 -1.5519305923364543e-01 4.6577711592926070e+00 3.9680371622252203e-01 0 0 0
244 82 2 -1.1794000000000000e+00 4.5704989489142704e+00 4.9264494259836633e+00 5.3129478974773969e-01 0 0 0
470 157 1 5.8970000000000000e-01 7.7022020222122816e+00 9.2548816811613168e+00 3.7085604951931948e+00 0 0 0
11 4 1 5.8970000000000000e-01 -7.8265480085584163e-02 1.1153614970378111e+01 4.0620717564418305e+00 0 0 0
38 13 1 5.8970000000000000e-01 4.2381006360039519e+00 1.0907087252001929e+01 3.8955709572934589e+00 0 0 0
109 37 2 -1.1794000000000000e+00 2.1322625606302950e+00 6.1873641411043163e+00 4.4473035508066934e+00 0 0 0
469 157 2 -1.1794000000000000e+00 6.8748271155723328e+00 8.8256754159555904e+00 3.4905614913634033e+00 0 0 0
10 4 2 -1.1794000000000000e+00 2.1386370957880860e-02 1.0341879676338445e+01 4.5592047148735659e+00 0 0 0
37 13 2 -1.1794000000000000e+00 4.2238582530414011e+00 1.0006776652970750e+01 4.2199002411757842e+00 0 0 0
110 37 1 5.8970000000000000e-01 2.1572964163139576e+00 7.0893237631340273e+00 4.1282751409016356e+00 0 0 0
136 46 2 -1.1794000000000000e+00 6.5983322408213878e+00 6.1615770743704656e+00 4.1430223630509788e+00 0 0 0
137 46 1 5.8970000000000000e-01 6.5864981912383289e+00 7.0676119064016723e+00 3.8349662475163817e+00 0 0 0
336 112 1 5.8970000000000000e-01 1.7352225577659772e+00 9.0246434200347689e+00 1.1350503073646034e+00 0 0 0
363 121 1 5.8970000000000000e-01 7.0980466339666206e+00 9.1940267949205996e+00 1.4397983724342862e+00 0 0 0
442 148 2 -1.1794000000000000e+00 2.1287194666190397e+00 8.6601724424114916e+00 3.0845147733104192e+00 0 0 0
443 148 1 5.8970000000000000e-01 2.9450479861780594e+00 8.9931614429452615e+00 3.4573710806761624e+00 0 0 0
444 148 1 5.8970000000000000e-01 1.4401477158535012e+00 9.0860402554540780e+00 3.5951251526489174e+00 0 0 0
471 157 1 5.8970000000000000e-01 6.2267208869066302e+00 9.2562360562192723e+00 4.0480291894979876e+00 0 0 0
39 13 1 5.8970000000000000e-01 4.2554559295533032e+00 1.0094302002517436e+01 5.1724891662063399e+00 0 0 0
138 46 1 5.8970000000000000e-01 6.6690718446946251e+00 6.2326491768237409e+00 5.0948883662279734e+00 0 0 0
362 121 1 5.8970000000000000e-01 7.1838320192370659e+00 8.2025825036394160e+00 2.9915502748516110e-01 0 0 0
12 4 1 5.8970000000000000e-01 -2.1019564795694703e-01 1.0580182486197550e+01 5.4567990053540720e+00 0 0 0
683 228 1 5.8970000000000000e-01 6.0258583987463128e+00 6.0399011656352268e+00 1.9639689364438923e-01 0 0 1
361 121 2 -1.1794000000000000e+00 7.1677549606987858e+00 9.1409407346550786e+00 4.8668176849635353e-01 0 0 0
334 112 2 -1.1794000000000000e+00 1.9183285430053110e+00 9.1549861034672748e+00 2.0469261697271904e-01 0 0 0
657 219 1 5.8970000000000000e-01 2.7793365178627996e+00 5.9102229589771156e+00 4.5926170605548024e-02 0 0 1
111 37 1 5.8970000000000000e-01 2.0325796052074914e+00 6.2708760561366477e+00 5.3955502518737877e+00 0 0 0
801 267 1 5.8970000000000000e-01 5.2373947437677630e+00 9.8545732705317572e+00 7.5860248541804509e-02 0 0 1
573 191 1 5.8970000000000000e-01 3.8887971648045960e+00 5.1466088694595937e+00 1.0939607125134801e+01 0 0 0
758 253 1 5.8970000000000000e-01 -8.3138064831495295e-01 1.6005819178603866e+00 7.3525080341962221e+00 0 0 0
546 182 1 5.8970000000000000e-01 -3.4908506947554896e-01 5.2302740529707759e+00 1.0657173614428503e+01 0 0 0
571 191 2 -1.1794000000000000e+00 4.6364868485312414e+00 4.5739769868027063e+00 1.0768522252799595e+01 0 0 0
356 119 1 5.8970000000000000e-01 6.5630656596357984e+00 -3.9385235049965839e-01 7.5431177688324578e+00 0 0 0
329 110 1 5.8970000000000000e-01 2.3971195295771000e+00 1.0430075084062687e-01 7.7241452966294322e+00 0 0 0
463 155 2 -1.1794000000000000e+00 6.8517830005288580e+00 4.6095593202603546e-01 1.0666573852691139e+01 0 0 0
545 182 1 5.8970000000000000e-01 1.1571330660331063e+00 5.1416557117356598e+00 1.0782753967475438e+01 0 0 0
222 74 1 5.8970000000000000e-01 2.1639635371390440e-02 4.7483700894435303e+00 8.6873546481414508e+00 0 0 0
247 83 2 -1.1794000000000000e+00 4.2619801739339538e+00 4.6195583526208361e+00 8.0478454882785115e+00 0 0 0
248 83 1 5.8970000000000000e-01 4.2796642209848157e+00 3.6700438206803234e+00 7.9293890466231565e+00 0 0 0
328 110 2 -1.1794000000000000e+00 2.3231678984190562e+00 9.6734221532892417e-01 8.1312352017368781e+00 0 0 0
330 110 1 5.8970000000000000e-01 2.4103735688127572e+00 7.9848512735007826e-01 9.0692917451387824e+00 0 0 0
355 119 2 -1.1794000000000000e+00 6.4269150360321339e+00 4.2662687827750506e-01 8.0166647405458900e+00 0 0 0
357 119 1 5.8970000000000000e-01 6.4727740580386772e+00 1.8096171086440357e-01 8.9405770321562521e+00 0 0 0
757 253 2 -1.1794000000000000e+00 -6.9344692138563355e-02 2.0831243717790464e+00 7.0320047122633040e+00 0 0 0
759 253 1 5.8970000000000000e-01 6.8260852527875726e-01 1.5908546790244085e+00 7.3613569569004191e+00 0 0 0
784 262 2 -1.1794000000000000e+00 4.4393559606577266e+00 2.0431949272155929e+00 6.9066786936844640e+00 0 0 0
785 262 1 5.8970000000000000e-01 3.6770367627305203e+00 1.8101204739445484e+00 7.4366022090105259e+00 0 0 0
786 262 1 5.8970000000000000e-01 5.1360966428229187e+00 1.4675779963296454e+00 7.2219910827902023e+00 0 0 0
249 83 1 5.8970000000000000e-01 4.4794042061019912e+00 4.7503411865838654e+00 8.9707415991801724e+00 0 0 0
221 74 1 5.8970000000000000e-01 -3.1783657511336982e-01 3.8443560484909782e+00 7.5216114172647099e+00 0 0 0
220 74 2 -1.1794000000000000e+00 -1.7339665433033333e-01 4.7623775425251038e+00 7.7504154217233632e+00 0 0 0
572 191 1 5.8970000000000000e-01 5.4026104994051805e+00 5.1205295874524719e+00 1.0943369459004259e+01 0 0 0
544 182 2 -1.1794000000000000e+00 4.0371985130898952e-01 4.7056279657020745e+00 1.0384634349800342e+01 0 0 0
464 155 1 5.8970000000000000e-01 7.5966667908510184e+00 1.0558855750723708e+00 1.0753339181918207e+01 0 0 0
5 2 1 5.8970000000000000e-01 2.4925821549055369e-01 3.0006632715489574e+00 1.0989198807546471e+01 0 0 0
365 122 1 5.8970000000000000e-01 6.3035015943101280e+00 8.1676439825540541e+00 7.3891011192788776e+00 0 0 0
678 226 1 5.8970000000000000e-01 7.1897435124170537e+00 5.8042169912592376e+00 7.3351525509453781e+00 0 0 0
677 226 1 5.8970000000000000e-01 5.6803606458390927e+00 5.6924937729183096e+00 7.2946344767818907e+00 0 0 0
767 256 1 5.8970000000000000e-01 -1.0390964232576212e+00 1.0049798449685817e+01 7.5712261858005592e+00 0 0 0
339 113 1 5.8970000000000000e-01 2.0206109580466625e+00 8.6354719770710933e+00 9.2501680809074180e+00 0 0 0
649 217 2 -1.1794000000000000e+00 2.1363168391598717e+00 6.1951729428135769e+00 7.2670461934008008e+00 0 0 0
766 256 2 -1.1794000000000000e+00 -1.9627595346862681e-01 1.0467947728629060e+01 7.3948664860304394e+00 0 0 0
364 122 2 -1.1794000000000000e+00 6.3046184820704880e+00 9.0492101046867042e+00 7.7616393019527932e+00 0 0 0
366 122 1 5.8970000000000000e-01 6.4231992790807002e+00 8.9124481108516012e+00 8.7014875319427638e+00 0 0 0
794 265 1 5.8970000000000000e-01 3.1850441765401216e+00 9.9676938417261614e+00 7.4700952044907600e+00 0 0 0
676 226 2 -1.1794000000000000e+00 6.4042230252554342e+00 6.2645328989391018e+00 7.0396395046997888e+00 0 0 0
338 113 1 5.8970000000000000e-01 1.9551118311386757e+00 7.8832232012276542e+00 7.9382063447468578e+00 0 0 0
337 113 2 -1.1794000000000000e+00 1.8640758187685835e+00 8.7586891615447549e+00 8.3140066832590076e+00 0 0 0
651 217 1 5.8970000000000000e-01 2.8674572598451413e+00 5.6220836674882095e+00 7.4977279784719881e+00 0 0 0
768 256 1 5.8970000000000000e-01 4.5349337558880837e-01 9.8469244391515787e+00 7.7239531059411304e+00 0 0 0
650 217 1 5.8970000000000000e-01 1.3548347094643540e+00 5.6794750620392884e+00 7.4660254024347354e+00 0 0 0
472 158 2 -1.1794000000000000e+00 6.5786540100384903e+00 8.8334736854146350e+00 1.0746158398488699e+01 0 0 0
793 265 2 -1.1794000000000000e+00 3.9494174984990527e+00 1.0303293773388011e+01 7.0017155115668883e+00 0 0 0
795 265 1 5.8970000000000000e-01 4.6987364426777702e+00 9.9787694884543221e+00 7.5012001565821471e+00 0 0 0
473 158 1 5.8970000000000000e-01 7.4286978502291978e+00 9.2604800581676852e+00 1.0852902695715063e+01 0 0 0
33 11 1 5.8970000000000000e-01 4.7941885130220729e+00 2.1788151217660743e+00 1.2835773254962008e+01 0 0 0
250 84 2 -1.1794000000000000e+00 4.8254556810292755e+00 5.2398625092857696e+00 1.5501804783964429e+01 0 0 0
251 84 1 5.8970000000000000e-01 4.8041543460715355e+00 4.3757215968528342e+00 1.5091000002648769e+01 0 0 0
331 111 2 -1.1794000000000000e+00 2.2086562078032719e+00 7.3144830196138488e-01 1.4964360092324432e+01 0 0 0
358 120 2 -1.1794000000000000e+00 6.4480699715265084e+00 7.8866260421484680e-01 1.5359117079522806e+01 0 0 0
762 254 1 5.8970000000000000e-01 5.1740207380616354e-01 1.7722313014957276e+00 1.4312734969936841e+01 0 0 0
787 263 2 -1.1794000000000000e+00 4.3689633700125396e+00 2.4366149522378580e+00 1.4731180465448295e+01 0 0 0
788 263 1 5.8970000000000000e-01 3.6198860826396704e+00 1.8504112437062064e+00 1.4838455702955002e+01 0 0 0
789 263 1 5.8970000000000000e-01 5.1253405816405175e+00 1.9094331523916150e+00 1.4988493657444099e+01 0 0 0
6 2 1 5.8970000000000000e-01 -1.1659194052623319e-01 2.2067235704866457e+00 1.2225018725486647e+01 0 0 0
224 75 1 5.8970000000000000e-01 -2.4885586889671815e-01 4.3058080369483189e+00 1.4534129566578121e+01 0 0 0
360 120 1 5.8970000000000000e-01 6.8301864589284955e+00 6.5745129946669678e-01 1.6226810864196505e+01 0 0 0
252 84 1 5.8970000000000000e-01 4.9125312492218205e+00 5.0586565737433764e+00 1.6437610256411016e+01 0 0 0
223 75 2 -1.1794000000000000e+00 -2.7308389395371495e-02 5.1027737718403738e+00 1.5015534456482783e+01 0 0 0
225 75 1 5.8970000000000000e-01 -1.5930660788214185e-01 4.8722534780518156e+00 1.5935048433037524e+01 0 0 0
333 111 1 5.8970000000000000e-01 2.1493471216770272e+00 6.7534130521787405e-01 1.5917988408903508e+01 0 0 0
760 254 2 -1.1794000000000000e+00 -2.9167523970357634e-01 2.2523531302098752e+00 1.4136207196770261e+01 0 0 0
31 11 2 -1.1794000000000000e+00 4.9938098902283095e+00 1.9526955536984039e+00 1.1927417473479323e+01 0 0 0
4 2 2 -1.1794000000000000e+00 1.3187756530622793e-01 2.1053236510392050e+00 1.1306277074577903e+01 0 0 0
332 111 1 5.8970000000000000e-01 2.2170046993251802e+00 -1.7931939118545864e-01 1.4670437113474858e+01 0 0 0
359 120 1 5.8970000000000000e-01 6.4219493338208480e+00 -8.6871147333668269e-02 1.4973499085415353e+01 0 0 0
437 146 1 5.8970000000000000e-01 3.3922306488782650e+00 1.1649665243467289e+00 1.1485926240349004e+01 0 0 0
438 146 1 5.8970000000000000e-01 1.9060674304536751e+00 1.4470678659389800e+00 1.1421613279565509e+01 0 0 0
32 11 1 5.8970000000000000e-01 4.9152880709089262e+00 2.7793326021427882e+00 1.1451522225016063e+01 0 0 0
761 254 1 5.8970000000000000e-01 -9.7525118222079143e-01 1.7365355950537573e+00 1.4563823107093654e+01 0 0 0
465 155 1 5.8970000000000000e-01 6.1578708574889607e+00 8.6754225432653020e-01 1.1185629703079400e+01 0 0 0
815 272 1 5.8970000000000000e-01 7.7333116449532584e+00 2.2307555969468242e+00 1.4565385017507177e+01 0 0 0
436 146 2 -1.1794000000000000e+00 2.5670724692727642e+00 8.0669196339372695e-01 1.1158587816226722e+01 0 0 0
681 227 1 5.8970000000000000e-01 7.6801545030032097e+00 6.3679682777408280e+00 1.4725142313066037e+01 0 0 0
40 14 2 -1.1794000000000000e+00 4.5380852347634208e+00 1.0496624466153600e+01 1.1614919128286832e+01 0 0 0
653 218 1 5.8970000000000000e-01 1.6338015882515997e+00 5.7832765196789993e+00 1.4782658293819388e+01 0 0 0
680 227 1 5.8970000000000000e-01 6.2061213354441866e+00 6.2543005686350996e+00 1.5051635060348522e+01 0 0 0
654 218 1 5.8970000000000000e-01 3.1435687553577463e+00 5.8917079472902163e+00 1.4818071194834356e+01 0 0 0
114 38 1 5.8970000000000000e-01 2.3109142186120937e+00 6.0862854860078937e+00 1.2597492283852802e+01 0 0 0
141 47 1 5.8970000000000000e-01 6.8315734809817430e+00 6.2592086029335396e+00 1.2555465086229812e+01 0 0 0
15 5 1 5.8970000000000000e-01 9.1576350826823749e-02 1.0486419820023208e+01 1.2672861873857626e+01 0 0 0
42 14 1 5.8970000000000000e-01 4.4096690148181112e+00 1.0527527762858094e+01 1.2562883262797030e+01 0 0 0
340 114 2 -1.1794000000000000e+00 2.1882499577895786e+00 9.0584100024263616e+00 1.5134374258566755e+01 0 0 0
341 114 1 5.8970000000000000e-01 2.0983154070885219e+00 8.2355348648608082e+00 1.4653983070575444e+01 0 0 0
367 123 2 -1.1794000000000000e+00 6.7577788177322731e+00 9.4440922760126043e+00 1.5480201696936600e+01 0 0 0
368 123 1 5.8970000000000000e-01 6.8157591697925612e+00 8.5500063332267988e+00 1.5143753133172234e+01 0 0 0
652 218 2 -1.1794000000000000e+00 2.3628844944053831e+00 6.3096098766209181e+00 1.4454529409100344e+01 0 0 0
679 227 2 -1.1794000000000000e+00 6.8316961281662758e+00 6.7735396942207462e+00 1.4546439646157738e+01 0 0 0
769 257 2 -1.1794000000000000e+00 -2.1475397881810623e-01 1.0588950643363148e+01 1.4716807370347269e+01 0 0 0
771 257 1 5.8970000000000000e-01 5.7657887736933144e-01 1.0084499426621063e+01 1.4905446385003657e+01 0 0 0
796 266 2 -1.1794000000000000e+00 4.4269100991167400e+00 1.0384977237388417e+01 1.4258397609349341e+01 0 0 0
797 266 1 5.8970000000000000e-01 3.6886679188350842e+00 9.8564375481571354e+00 1.4561546255219735e+01 0 0 0
798 266 1 5.8970000000000000e-01 5.1989845635984322e+00 9.9472825237899531e+00 1.4616998935994657e+01 0 0 0
342 114 1 5.8970000000000000e-01 2.2965444774412607e+00 8.7926477248590480e+00 1.6047475626614798e+01 0 0 0
369 123 1 5.8970000000000000e-01 6.6681242979070996e+00 9.3387896986242627e+00 1.6427289534628283e+01 0 0 0
139 47 2 -1.1794000000000000e+00 7.0989260370422125e+00 6.2952457700539712e+00 1.1637115151389699e+01 0 0 0
140 47 1 5.8970000000000000e-01 6.9109384433468239e+00 7.1941121673013679e+00 1.1367581301735783e+01 0 0 0
770 257 1 5.8970000000000000e-01 -9.3399570505494234e-01 9.9826880210614188e+00 1.4893825152030889e+01 0 0 0
112 38 2 -1.1794000000000000e+00 2.3691334606040595e+00 6.0333630532735283e+00 1.1643572841291745e+01 0 0 0
41 14 1 5.8970000000000000e-01 4.5428366072496589e+00 1.1414317317303718e+01 1.1343355073087519e+01 0 0 0
113 38 1 5.8970000000000000e-01 2.2828434089315053e+00 6.9393097990020030e+00 1.1347242677785447e+01 0 0 0
14 5 1 5.8970000000000000e-01 -1.0965046960234300e-01 1.1104776531418604e+01 1.1305892420434015e+01 0 0 0
13 5 2 -1.1794000000000000e+00 1.8302791171580265e-01 1.0302535928570128e+01 1.1738032303910529e+01 0 0 0
446 149 1 5.8970000000000000e-01 3.2395878578630382e+00 9.3089200036545225e+00 1.1419138458019622e+01 0 0 0
474 158 1 5.8970000000000000e-01 5.9499207309059345e+00 9.4549130194397009e+00 1.1113138058710240e+01 0 0 0
447 149 1 5.8970000000000000e-01 1.7309646518424620e+00 9.3347828365390733e+00 1.1293771449841767e+01 0 0 0
445 149 2 -1.1794000000000000e+00 2.5004474691188627e+00 8.8118325052868265e+00 1.1068691208507291e+01 0 0 0
549 183 1 5.8970000000000000e-01 -8.8115738424606327e-01 5.4289803999393218e+00 1.8394988109354472e+01 0 0 0
791 264 1 5.8970000000000000e-01 3.5005128174219902e+00 1.8398621601628844e+00 2.2032231530534201e+01 0 0 0
764 255 1 5.8970000000000000e-01 -9.1743873573208312e-01 1.7935919553867681e+00 2.1485189330857072e+01 0 0 0
763 255 2 -1.1794000000000000e+00 -7.4320301866760627e-02 2.1442072122725739e+00 2.1197876942256503e+01 0 0 0
7 3 2 -1.1794000000000000e+00 3.2312037518579700e-01 2.2117805601315941e+00 1.8397387535042224e+01 0 0 0
8 3 1 5.8970000000000000e-01 1.5226929440068776e-01 3.1220782349781659e+00 1.8156319865258929e+01 0 0 0
9 3 1 5.8970000000000000e-01 3.4214214368266671e-01 2.2164486415018021e+00 1.9354311024476722e+01 0 0 0
34 12 2 -1.1794000000000000e+00 4.7121932968760367e+00 1.7029021552975705e+00 1.9040822842137036e+01 0 0 0
35 12 1 5.8970000000000000e-01 4.8652985870578735e+00 2.6456590066214298e+00 1.8979703512767099e+01 0 0 0
36 12 1 5.8970000000000000e-01 4.3558724495545693e+00 1.5741569988750970e+00 1.9919796366329557e+01 0 0 0
439 147 2 -1.1794000000000000e+00 2.5492290689870334e+00 6.5651464159621953e-01 1.7794168081660430e+01 0 0 0
440 147 1 5.8970000000000000e-01 3.3862455114665981e+00 8.9335149578785122e-01 1.8193725345179729e+01 0 0 0
441 147 1 5.8970000000000000e-01 1.9261326908210754e+00 1.2911280473495390e+00 1.8147944668978543e+01 0 0 0
466 156 2 -1.1794000000000000e+00 7.1953274521971924e+00 9.1332120163305064e-01 1.7927813191437458e+01 0 0 0
468 156 1 5.8970000000000000e-01 6.4676434769699060e+00 1.4072918262380312e+00 1.8305661835134885e+01 0 0 0
547 183 2 -1.1794000000000000e+00 -1.4974791503591428e-01 4.9575333333505940e+00 1.7996103916281363e+01 0 0 0
574 192 2 -1.1794000000000000e+00 4.9416386512903729e+00 4.6620319606295073e+00 1.8295796012732822e+01 0 0 0
575 192 1 5.8970000000000000e-01 5.5058856506482199e+00 5.3629037318130832e+00 1.8622188033728861e+01 0 0 0
548 183 1 5.8970000000000000e-01 6.3063774477105461e-01 5.4122364661937699e+00 1.8313291221227271e+01 0 0 0
576 192 1 5.8970000000000000e-01 4.0659848459453807e+00 4.8953481521983475e+00 1.8604238682320176e+01 0 0 0
790 264 2 -1.1794000000000000e+00 4.1996037699807029e+00 2.4700738557597020e+00 2.1858154743513872e+01 0 0 0
765 255 1 5.8970000000000000e-01 5.7585703046092984e-01 1.5861891600596485e+00 2.1624594960282526e+01 0 0 0
218 73 1 5.8970000000000000e-01 -1.1050551030167242e-01 3.8229868878010449e+00 2.2033362921625578e+01 0 0 -1
326 109 1 5.8970000000000000e-01 1.9677916220157343e+00 -2.8406976663296812e-01 2.1832751062328583e+01 0 0 -1
335 112 1 5.8970000000000000e-01 1.7822651359959203e+00 8.2936154666178847e+00 2.1912897679620826e+01 0 0 -1
476 159 1 5.8970000000000000e-01 7.4259526049226601e+00 9.8818627191054080e+00 1.8385153482283005e+01 0 0 0
800 267 1 5.8970000000000000e-01 3.7282128915338766e+00 9.8487919300384519e+00 2.2057293913113035e+01 0 0 0
18 6 1 5.8970000000000000e-01 -1.5749192817951163e-01 1.0207384079632817e+01 1.9444962734489774e+01 0 0 0
799 267 2 -1.1794000000000000e+00 4.5073388236603948e+00 1.0335945342802754e+01 2.1789139525326174e+01 0 0 0
43 15 2 -1.1794000000000000e+00 4.6229461519024619e+00 1.0360395351805453e+01 1.9109366703799747e+01 0 0 0
45 15 1 5.8970000000000000e-01 4.5602580408234479e+00 1.0494452516115302e+01 2.0054979437660283e+01 0 0 0
450 150 1 5.8970000000000000e-01 1.7240094303604676e+00 9.2050021715125361e+00 1.8264404612645084e+01 0 0 0
682 228 2 -1.1794000000000000e+00 6.7948043743454640e+00 6.4948218635070001e+00 2.1955379362835366e+01 0 0 0
116 39 1 5.8970000000000000e-01 2.2943472628964496e+00 6.8381807839239377e+00 1.8698360297878473e+01 0 0 0
449 150 1 5.8970000000000000e-01 3.2327177660292876e+00 9.2356950461405027e+00 1.8388163859688682e+01 0 0 0
448 150 2 -1.1794000000000000e+00 2.5043916357716434e+00 8.6632053969070633e+00 1.8147158316117050e+01 0 0 0
44 15 1 5.8970000000000000e-01 4.4961785308729372e+00 1.1231821574631912e+01 1.8734520302648644e+01 0 0 0
117 39 1 5.8970000000000000e-01 2.2910732578098481e+00 5.8109062169062415e+00 1.9810121327540482e+01 0 0 0
16 6 2 -1.1794000000000000e+00 8.3435321080116485e-04 1.0204754810013114e+01 1.8501021891262123e+01 0 0 0
17 6 1 5.8970000000000000e-01 -1.8902700634253630e-01 1.1100759098293461e+01 1.8223357479965767e+01 0 0 0
142 48 2 -1.1794000000000000e+00 6.7420735346734739e+00 6.4438335637315207e+00 1.9157324106907382e+01 0 0 0
144 48 1 5.8970000000000000e-01 6.6805543882139391e+00 6.3407740117473397e+00 2.0106902054108087e+01 0 0 0
477 159 1 5.8970000000000000e-01 5.9928371993531835e+00 9.4544637559603029e+00 1.8621222785479937e+01 0 0 0
143 48 1 5.8970000000000000e-01 6.6687975815858884e+00 7.3871234757382211e+00 1.9013091404538411e+01 0 0 0
115 39 2 -1.1794000000000000e+00 2.3265824942731133e+00 5.8949952589479055e+00 1.8857368413427356e+01 0 0 0
475 159 2 -1.1794000000000000e+00 6.8507502165945491e+00 9.1171662253187904e+00 1.8363236945300638e+01 0 0 0
772 258 2 -1.1794000000000000e+00 -2.0844781860558628e-01 1.0501684171594203e+01 2.1329806567229703e+01 0 0 0
655 219 2 -1.1794000000000000e+00 2.0452449769976506e+00 6.1966200441517429e+00 2.1604987058329641e+01 0 0 0
773 258 1 5.8970000000000000e-01 -9.7066012920368350e-01 1.0139993996081397e+01 2.1781995652538988e+01 0 0 0
774 258 1 5.8970000000000000e-01 5.4067375071547530e-01 1.0063298473908128e+01 2.1733428007746255e+01 0 0 0
684 228 1 5.8970000000000000e-01 7.4973460880677321e+00 5.8462494844326365e+00 2.1999751776522885e+01 0 0 0
656 219 1 5.8970000000000000e-01 1.2944717008272577e+00 5.7039585615152815e+00 2.1936442528470870e+01 0 0 0
118 40 2 -1.1794000000000000e+00 2.5114972646471254e+00 1.4342512049969587e+01 4.2206768579092770e+00 0 0 0
119 40 1 5.8970000000000000e-01 2.2804451863325936e+00 1.5173251621363274e+01 3.8053417779323522e+00 0 0 0
145 49 2 -1.1794000000000000e+00 6.5358934183265092e+00 1.4229981845331764e+01 4.1695490491504179e+00 0 0 0
146 49 1 5.8970000000000000e-01 6.5727074638567800e+00 1.5063740077147001e+01 3.7010973929662319e+00 0 0 0
228 76 1 5.8970000000000000e-01 1.9046615242801404e-01 1.2880098804762017e+01 1.0718507095028207e+00 0 0 0
255 85 1 5.8970000000000000e-01 4.4358273682884803e+00 1.3241745799826862e+01 1.2015760319549140e+00 0 0 0
345 115 1 5.8970000000000000e-01 2.2972841358547362e+00 1.7298683504472855e+01 1.4522289452711137e+00 0 0 0
451 151 2 -1.1794000000000000e+00 2.1834498083152059e+00 1.7075170124323503e+01 3.2887998916575034e+00 0 0 0
551 184 1 5.8970000000000000e-01 9.8228846432247396e-01 1.3196312480046966e+01 3.4972156843868585e+00 0 0 0
577 193 2 -1.1794000000000000e+00 4.4630058416867824e+00 1.2568813986675270e+01 3.2497973518503738e+00 0 0 0
578 193 1 5.8970000000000000e-01 5.3066812584195580e+00 1.3000855551955942e+01 3.3834074794356281e+00 0 0 0
579 193 1 5.8970000000000000e-01 3.8347228608513371e+00 1.3118892629067307e+01 3.7176015096454051e+00 0 0 0
550 184 2 -1.1794000000000000e+00 2.6482625806306825e-01 1.2775077014760011e+01 3.0238869258795611e+00 0 0 0
372 124 1 5.8970000000000000e-01 7.1613117356007185e+00 1.6684791097928095e+01 8.7073084859294414e-01 0 0 0
120 40 1 5.8970000000000000e-01 2.4023646098184250e+00 1.4504153930621717e+01 5.1577357894860816e+00 0 0 0
147 49 1 5.8970000000000000e-01 6.5649023801313824e+00 1.4473062869599344e+01 5.0948253955722356e+00 0 0 0
478 160 2 -1.1794000000000000e+00 6.6737673572361107e+00 1.6759062295821483e+01 2.6542077162544251e+00 0 0 0
480 160 1 5.8970000000000000e-01 5.8197469815816643e+00 1.7175029610397360e+01 2.7724514506355069e+00 0 0 0
452 151 1 5.8970000000000000e-01 3.0946623354538731e+00 1.7339059540781264e+01 3.4170016138391897e+00 0 0 0
552 184 1 5.8970000000000000e-01 -5.2361567580893442e-01 1.3215197855775639e+01 3.3415705756845413e+00 0 0 0
226 76 2 -1.1794000000000000e+00 1.2203141193775129e-01 1.3056634288011637e+01 1.3363259564456115e-01 0 0 0
253 85 2 -1.1794000000000000e+00 4.5698749948875550e+00 1.3257403113312485e+01 2.5401903486896837e-01 0 0 0
479 160 1 5.8970000000000000e-01 7.2396482675258209e+00 1.7185210732413559e+01 3.2978986615004979e+00 0 0 0
254 85 1 5.8970000000000000e-01 4.5533179179460870e+00 1.2336483163042940e+01 -5.9263788984333420e-03 0 0 0
343 115 2 -1.1794000000000000e+00 2.4871620465989195e+00 1.7327857807598797e+01 5.1456657979296505e-01 0 0 0
344 115 1 5.8970000000000000e-01 2.1799904573142439e+00 1.6484923900553216e+01 1.8123547605739532e-01 0 0 0
453 151 1 5.8970000000000000e-01 1.6717778848509246e+00 1.7768097016290753e+01 3.7061025524753859e+00 0 0 0
128 43 1 5.8970000000000000e-01 2.1922859042468139e+00 2.3300001105820318e+01 3.6749123400077908e+00 0 0 0
236 79 1 5.8970000000000000e-01 -5.1609146347064372e-02 2.0332990824480710e+01 -7.3098309178536826e-03 0 0 0
235 79 2 -1.1794000000000000e+00 -1.5046523919539276e-01 2.1246351829719366e+01 2.6090614773020054e-01 0 0 0
155 52 1 5.8970000000000000e-01 6.9564845534581128e+00 2.3339316040361922e+01 3.5594521015089393e+00 0 0 0
154 52 2 -1.1794000000000000e+00 6.8321091764702384e+00 2.2431247662748717e+01 3.8349224735978895e+00 0 0 0
46 16 2 -1.1794000000000000e+00 4.6322093748474211e+00 1.8501961589336094e+01 3.5454110122216607e+00 0 0 0
19 7 2 -1.1794000000000000e+00 -1.0220221555440519e-01 1.8736156208800516e+01 3.7778205991728568e+00 0 0 0
20 7 1 5.8970000000000000e-01 -2.7198993753060124e-01 1.9620282108571008e+01 3.4530444101317967e+00 0 0 0
47 16 1 5.8970000000000000e-01 4.5212941587436832e+00 1.9438422771784669e+01 3.3820601716045324e+00 0 0 0
127 43 2 -1.1794000000000000e+00 2.2587047898993129e+00 2.2392717585229800e+01 3.9721948939107006e+00 0 0 0
237 79 1 5.8970000000000000e-01 -2.6043955612487812e-01 2.1206959343049011e+01 1.2108683607193076e+00 0 0 0
264 88 1 5.8970000000000000e-01 4.5711316155343171e+00 2.1091171195740966e+01 9.4659390047452163e-01 0 0 0
559 187 2 -1.1794000000000000e+00 -2.6698857489517863e-01 2.1216178100503459e+01 2.9712005934153600e+00 0 0 0
560 187 1 5.8970000000000000e-01 4.9539831814506824e-01 2.1715010280930450e+01 3.2647568740552240e+00 0 0 0
586 196 2 -1.1794000000000000e+00 4.4954397014940675e+00 2.1135590085412893e+01 2.7960621085908035e+00 0 0 0
587 196 1 5.8970000000000000e-01 5.3027431182963980e+00 2.1623980404759905e+01 2.9573956537547303e+00 0 0 0
588 196 1 5.8970000000000000e-01 3.8264148731859118e+00 2.1606525448255855e+01 3.2929205253600293e+00 0 0 0
21 7 1 5.8970000000000000e-01 -2.2753845642763065e-01 1.8800100651044552e+01 4.7245633923942583e+00 0 0 0
48 16 1 5.8970000000000000e-01 4.5775132194717036e+00 1.8416267277229117e+01 4.4971237666582402e+00 0 0 0
129 43 1 5.8970000000000000e-01 2.2564886978935013e+00 2.2452383918740548e+01 4.9274544757811949e+00 0 0 0
262 88 2 -1.1794000000000000e+00 4.6129882219202116e+00 2.1082557138041540e+01 -9.5945033247388824e-03 0 0 0
561 187 1 5.8970000000000000e-01 -9.9356294791865840e-01 2.1559802729524417e+01 3.4910749966890000e+00 0 0 0
156 52 1 5.8970000000000000e-01 6.7498560873138249e+00 2.2478495391797189e+01 4.7873267339330949e+00 0 0 0
830 277 1 5.8970000000000000e-01 7.8331054407028367e+00 1.7659046543900882e+01 7.4457364178202896e+00 0 0 0
581 194 1 5.8970000000000000e-01 5.2480389174875688e+00 1.3608304292512155e+01 1.0850758286858051e+01 0 0 0
481 161 2 -1.1794000000000000e+00 6.5647898938204010e+00 1.6927216063720426e+01 1.0835912087032341e+01 0 0 0
803 268 1 5.8970000000000000e-01 3.6435827704256529e+00 1.7675898473029019e+01 6.5130685862576865e+00 0 0 0
553 185 2 -1.1794000000000000e+00 -2.8497860197420871e-01 1.2895709961051685e+01 1.0806905862549668e+01 0 0 0
580 194 2 -1.1794000000000000e+00 4.4874385245462500e+00 1.3078157387548856e+01 1.0612613842158039e+01 0 0 0
456 152 1 5.8970000000000000e-01 1.1782179176698802e+00 1.7481573241918650e+01 1.0333811787149086e+01 0 0 0
454 152 2 -1.1794000000000000e+00 1.9284808479332409e+00 1.6888722630342258e+01 1.0290686699155124e+01 0 0 0
230 77 1 5.8970000000000000e-01 -9.5871583629663013e-02 1.2086719705979782e+01 7.8567392253170398e+00 0 0 0