LAMMPS data file via write_data, version 19 Sep 2019, timestep = 200000

288 atoms
2 atom types
192 bonds
1 bond types
96 angles
1 angle types

3.1877969710142295e-01 1.4666020302898069e+01 xlo xhi
3.1877969710142295e-01 1.4666020302898069e+01 ylo yhi
3.1877969710142295e-01 1.4666020302898069e+01 zlo zhi

Masses

1 1.008
2 15.9994

Pair Coeffs # lj/cut/tip4p/long

1 0 0
2 0.21084 3.1668

Bond Coeffs # harmonic

1 450 0.9572

Angle Coeffs # harmonic

1 55 104.52

Atoms # full

113 1 1 5.8970000000000000e-01 4.1995505770104691e+00 2.2426799710463214e+00 5.5230097994591576e+00 -3 -2 1
67 1 2 -1.1794000000000000e+00 4.4272308544552388e+00 2.8847212153338275e+00 7.2457699440072636e+00 0 -2 -3
214 1 2 -1.1794000000000000e+00 1.0158725326523772e+00 1.1220883802028214e+00 2.9812054833076034e+00 4 1 -3
54 1 1 5.8970000000000000e-01 1.0724546474976417e+00 7.1806657694391589e+00 3.1674370982850508e+00 5 -1 0
65 1 1 5.8970000000000000e-01 1.9403794168373150e+00 4.0080993052074687e+00 3.7083387780880930e+00 2 1 3
222 1 1 5.8970000000000000e-01 2.2344974855688995e+00 2.2637196693066040e+00 7.0651559606035441e+00 -2 -1 -1
92 1 1 5.8970000000000000e-01 4.8060673072682203e+00 1.2610459782710737e+00 8.3631744220616588e-01 1 2 -4
260 1 1 5.8970000000000000e-01 5.4550982103962813e+00 4.1455849912490343e+00 5.6087952741036160e+00 0 -2 -2
82 1 2 -1.1794000000000000e+00 9.6082301349228116e-01 5.4491802749835418e+00 4.1351489256955203e+00 -1 3 1
22 1 2 -1.1794000000000000e+00 6.3383428570297164e+00 8.6910348250854730e-01 3.8055209434498662e+00 5 3 0
259 1 2 -1.1794000000000000e+00 5.8167345861075166e+00 4.8516381024582786e+00 5.0733240570132478e+00 0 -2 -2
164 1 1 5.8970000000000000e-01 3.7291525708746285e+00 4.8346371067205576e+00 2.8298174953993414e+00 -4 -1 -1
163 1 2 -1.1794000000000000e+00 4.4673615662516371e+00 5.4431279226916827e+00 2.8018525604735554e+00 -4 -1 -1
64 1 2 -1.1794000000000000e+00 2.6566677910789558e+00 3.5472189861380885e+00 3.2718321649901969e+00 2 1 3
112 1 2 -1.1794000000000000e+00 4.0036268723246380e+00 1.7167138930560355e+00 4.7477743796122356e+00 -3 -2 1
125 1 1 5.8970000000000000e-01 7.0886956537681174e+00 4.0427509070015937e+00 4.0879967408111222e+00 0 -5 3
165 1 1 5.8970000000000000e-01 4.9491531469647194e+00 5.2732459167110353e+00 3.6111843336110425e+00 -4 -1 -1
60 1 1 5.8970000000000000e-01 4.8627211867082965e+00 5.0547359364773321e+00 9.6777578908280615e-01 1 1 -4
174 1 1 5.8970000000000000e-01 1.9997920656098020e+00 6.6588453986244511e+00 1.0311774073981652e+00 1 -1 4
66 1 1 5.8970000000000000e-01 2.2721936107386727e+00 2.7167513070889173e+00 2.9916285292108395e+00 2 1 3
114 1 1 5.8970000000000000e-01 3.7076977309981340e+00 2.3516014085845072e+00 4.0955912677108666e+00 -3 -2 1
213 1 1 5.8970000000000000e-01 4.2082606499566495e+00 7.1134249358111186e+00 3.3632482947805196e+00 0 -1 -2
155 1 1 5.8970000000000000e-01 3.5227673551343336e-01 6.9371469650941480e+00 6.6861485952954371e+00 1 0 8
93 1 1 5.8970000000000000e-01 5.4140440620962629e+00 8.1737708173280910e-01 2.1496497846441165e+00 1 2 -4
24 1 1 5.8970000000000000e-01 5.5672806326682904e+00 1.1814321470049527e+00 4.2787210076611091e+00 5 3 0
23 1 1 5.8970000000000000e-01 6.9156182377575925e+00 1.6309986200351867e+00 3.7579645404477411e+00 5 3 0
261 1 1 5.8970000000000000e-01 6.0941915803388662e+00 5.5143584156637422e+00 5.7056368106630124e+00 0 -2 -2
172 1 2 -1.1794000000000000e+00 1.9264779389680591e+00 5.9679789390291074e+00 3.7290593548983864e-01 1 -1 4
221 1 1 5.8970000000000000e-01 1.1504491311730058e+00 1.2132653024312559e+00 6.9522842537385481e+00 -2 -1 -1
83 1 1 5.8970000000000000e-01 6.5763542535384645e-01 5.7007673986346452e+00 5.0073781867346421e+00 -1 3 1
91 1 2 -1.1794000000000000e+00 4.8781310646044806e+00 5.0620607519321947e-01 1.4202890298068236e+00 1 2 -4
20 1 1 5.8970000000000000e-01 2.7734784967616095e+00 3.3820059117116763e-01 5.1131879889126424e+00 -1 -2 -3
37 1 2 -1.1794000000000000e+00 5.4971819345067292e+00 4.9304487637386663e+00 1.1416831245550613e+01 1 5 -2
36 1 1 5.8970000000000000e-01 5.8723539653630237e+00 2.3629940172965727e+00 1.3673209191419291e+01 1 -4 1
276 1 1 5.8970000000000000e-01 1.5733397731616550e+00 6.6522289226561204e+00 1.0235454046476942e+01 1 2 -2
58 1 2 -1.1794000000000000e+00 4.6808351587657793e+00 5.2768625111076446e+00 1.4401996087717043e+01 1 1 -5
68 1 1 5.8970000000000000e-01 4.9270433639372850e+00 2.3269752530530989e+00 7.8416799409297209e+00 0 -2 -3
139 1 2 -1.1794000000000000e+00 7.2910996015041203e+00 4.1080135638508564e+00 9.2251125171068580e+00 1 0 4
265 1 2 -1.1794000000000000e+00 4.4567445216507604e+00 7.1408938847645169e+00 7.7017883014861219e+00 -2 -5 -6
34 1 2 -1.1794000000000000e+00 5.0350200826187050e+00 2.5682219704176279e+00 1.3257531467120335e+01 1 -4 1
274 1 2 -1.1794000000000000e+00 1.4029318833726017e+00 5.7383151510259998e+00 1.0462878360870439e+01 1 2 -2
145 1 2 -1.1794000000000000e+00 6.0437067771735862e+00 1.7299317829284215e+00 9.0657918827986297e+00 -6 -1 -3
256 1 2 -1.1794000000000000e+00 3.7832224917718507e+00 4.9950543735403450e+00 9.2975064691031317e+00 -2 -3 -1
39 1 1 5.8970000000000000e-01 5.3963622794562136e+00 4.2640950102148363e+00 1.2096409424806103e+01 1 5 -2
5 1 1 5.8970000000000000e-01 4.1925773672638051e+00 1.5746310422366199e+00 1.1896217378390590e+01 -2 3 -1
186 1 1 5.8970000000000000e-01 2.2379965243842186e+00 1.4885580677052508e+00 1.0633835028254635e+01 -1 3 0
69 1 1 5.8970000000000000e-01 4.1092448136843931e+00 3.5999532484902788e+00 7.7965151360461000e+00 0 -2 -3
275 1 1 5.8970000000000000e-01 2.2228648290989899e+00 5.2853143226422077e+00 1.0266667217949756e+01 1 2 -2
258 1 1 5.8970000000000000e-01 4.0514690042896442e+00 5.7715328614046841e+00 8.8064582684718289e+00 -2 -3 -1
104 1 1 5.8970000000000000e-01 6.6644712024174302e-01 3.5865495614799920e+00 8.4484745337002902e+00 -3 -2 3
146 1 1 5.8970000000000000e-01 5.4589687611683448e+00 1.4738246883903103e+00 9.7788780709131888e+00 -6 -1 -3
225 1 1 5.8970000000000000e-01 3.8739123022288563e-01 5.1455526953447688e+00 1.3484311555480145e+01 3 3 0
55 1 2 -1.1794000000000000e+00 7.4029815023216274e+00 2.3295611896890476e+00 1.4509493209724493e+01 -6 6 -1
38 1 1 5.8970000000000000e-01 6.2080045000887427e+00 4.6046783122904262e+00 1.0864909046011785e+01 1 5 -2
147 1 1 5.8970000000000000e-01 6.5257784313923626e+00 9.3120449633574687e-01 8.8521655720703087e+00 -6 -1 -3
59 1 1 5.8970000000000000e-01 5.1501448646868910e+00 6.0982527884170716e+00 1.4256767144858225e+01 1 1 -5
257 1 1 5.8970000000000000e-01 4.3754176294147129e+00 4.9699283958793705e+00 1.0048951220889283e+01 -2 -3 -1
185 1 1 5.8970000000000000e-01 1.3481713305628065e+00 1.3315419103531363e+00 9.4193882761786885e+00 -1 3 0
141 1 1 5.8970000000000000e-01 6.8822508448516722e+00 3.2429287956396022e+00 9.2020241488507963e+00 1 0 4
4 1 2 -1.1794000000000000e+00 4.0684689221056729e+00 1.2261636828911153e+00 1.1013505860743090e+01 -2 3 -1
184 1 2 -1.1794000000000000e+00 1.3213416356197978e+00 1.5094360079143785e+00 1.0359409021140806e+01 -1 3 0
35 1 1 5.8970000000000000e-01 4.7915185449198070e+00 3.4213014957248671e+00 1.3616667537189420e+01 1 -4 1
173 1 1 5.8970000000000000e-01 2.8234621212456705e+00 5.6577627245798006e+00 1.4596944531897138e+01 1 -1 3
220 1 2 -1.1794000000000000e+00 1.4760971997990269e+00 1.9061215601111379e+00 7.5266635728895288e+00 -2 -1 -1
161 1 1 5.8970000000000000e-01 7.4836837114452148e+00 5.3348453962510574e+00 7.8350832956917671e+00 3 -1 -4
6 1 1 5.8970000000000000e-01 3.7766673008245846e+00 3.2493923799303204e-01 1.1150163722991625e+01 -2 3 -1
132 1 1 5.8970000000000000e-01 1.9857663248398743e+00 8.8696677073683574e+00 6.2215591154838359e+00 4 3 1
77 1 1 5.8970000000000000e-01 6.6301221136503949e+00 8.1783142632839478e+00 5.7997570862920798e+00 -1 -5 3
81 1 1 5.8970000000000000e-01 4.2301962810358535e+00 1.1679438700364512e+01 6.6845639289157974e+00 3 6 0
244 1 2 -1.1794000000000000e+00 7.1847971131426354e+00 1.3603815895520443e+01 6.2575445852813791e+00 -2 2 0
204 1 1 5.8970000000000000e-01 5.1709167764429003e+00 1.2832853106184395e+01 2.7018236391218822e+00 2 4 1
76 1 2 -1.1794000000000000e+00 5.7253320160417811e+00 8.4588726081605436e+00 5.9362753629532836e+00 -1 -5 3
177 1 1 5.8970000000000000e-01 1.7893584658125030e+00 1.0055263634002714e+01 7.1461165015305850e-01 -1 3 -1
80 1 1 5.8970000000000000e-01 3.0671332213812814e+00 1.2609812023061497e+01 6.9547461427225281e+00 3 6 0
175 1 2 -1.1794000000000000e+00 1.8441834905271501e+00 1.0317660424654470e+01 1.6333869915247941e+00 -1 3 -1
217 1 2 -1.1794000000000000e+00 2.1389322526694512e+00 1.3314556643043847e+01 3.8648280154053266e-01 -5 -2 4
21 1 1 5.8970000000000000e-01 1.5920121600236414e+00 1.3767793805701647e+01 4.8821827927485320e+00 -1 -3 -3
170 1 1 5.8970000000000000e-01 5.6789522371834416e+00 1.0163179970219321e+01 5.6187878163986413e+00 0 -2 -2
203 1 1 5.8970000000000000e-01 6.4284509722858676e+00 1.2048427436717567e+01 2.3942480409590572e+00 2 4 1
227 1 1 5.8970000000000000e-01 4.8547767418944590e+00 1.0360757742202955e+01 2.0820552302703894e+00 -1 0 1
171 1 1 5.8970000000000000e-01 5.3303006171624201e+00 1.1311336525759181e+01 4.6960282188090439e+00 0 -2 -2
25 1 2 -1.1794000000000000e+00 1.3060827564290847e+00 1.0155219024071965e+01 7.3381835265568691e+00 1 -3 -2
250 1 2 -1.1794000000000000e+00 5.7561613973286740e-01 1.2536822067432013e+01 3.3345097294224471e+00 -2 0 -3
267 1 1 5.8970000000000000e-01 3.6383799430014769e+00 7.5271617572152003e+00 7.3902207760646350e+00 -2 -5 -6
19 1 2 -1.1794000000000000e+00 2.3589031994183145e+00 1.3887960177118606e+01 5.4420434448046278e+00 -1 -3 -3
176 1 1 5.8970000000000000e-01 1.4930880707253744e+00 9.5705384534503128e+00 2.1176795764956564e+00 -1 3 -1
251 1 1 5.8970000000000000e-01 1.3298581528349835e+00 1.1952759873682680e+01 3.2571246946627617e+00 -2 0 -3
169 1 2 -1.1794000000000000e+00 5.5803033330288354e+00 1.1114952732559198e+01 5.5987596535632864e+00 0 -2 -2
202 1 2 -1.1794000000000000e+00 5.5870399377307329e+00 1.1983049459835174e+01 2.8456344004901180e+00 2 4 1
79 1 2 -1.1794000000000000e+00 3.6247459103630515e+00 1.1954009808425131e+01 7.3730673596633798e+00 3 6 0
228 1 1 5.8970000000000000e-01 3.4440337237143850e+00 1.0006707695513965e+01 1.6628293048794789e+00 -1 0 1
27 1 1 5.8970000000000000e-01 5.1641939467958120e-01 1.0535241110816862e+01 6.9534430130396689e+00 1 -3 -2
226 1 2 -1.1794000000000000e+00 4.3181564996222761e+00 9.6320712464964018e+00 1.7704900463794639e+00 -1 0 1
212 1 1 5.8970000000000000e-01 4.0861813262235467e+00 8.6153685902391786e+00 3.2198376012189351e+00 0 -1 -2
78 1 1 5.8970000000000000e-01 5.2487272687752577e+00 8.1059203265436928e+00 5.1850994732523645e+00 -1 -5 3
246 1 1 5.8970000000000000e-01 7.0738689964878114e+00 1.4361448557928030e+01 5.6833607404543178e+00 -2 2 0
254 1 1 5.8970000000000000e-01 5.4912759405027840e+00 8.2532409448331645e+00 6.4620440086431585e-01 2 -2 3
245 1 1 5.8970000000000000e-01 6.4868162179684914e+00 1.3002311023664520e+01 5.9986660690713594e+00 -2 2 0
219 1 1 5.8970000000000000e-01 2.5653199475674704e+00 1.4152095957532167e+01 5.6737060025877450e-01 -5 -2 4
130 1 2 -1.1794000000000000e+00 2.2956183494802103e+00 7.9685935393319491e+00 6.1316216253034614e+00 4 3 1
52 1 2 -1.1794000000000000e+00 7.8531616638915724e-01 8.0586427612001224e+00 2.9170367757708977e+00 5 -1 0
131 1 1 5.8970000000000000e-01 2.6815756213160755e+00 7.9338053383357439e+00 5.2565008980323755e+00 4 3 1
211 1 2 -1.1794000000000000e+00 3.8995335518856886e+00 7.8948700471118043e+00 3.8215380567500241e+00 0 -1 -2
96 1 1 5.8970000000000000e-01 4.3761338264082994e-01 1.3271808183494052e+01 7.5380699571192455e-01 -4 1 -1
216 1 1 5.8970000000000000e-01 1.0254594443779461e+00 1.4513470709648368e+01 2.9336131953180793e+00 4 0 -3
53 1 1 5.8970000000000000e-01 4.3145237851275459e-01 8.4343554000512988e+00 3.7230225842819222e+00 5 -1 0
266 1 1 5.8970000000000000e-01 5.1412539798693322e+00 7.6201418657759676e+00 7.2351278260537724e+00 -2 -5 -6
86 1 1 5.8970000000000000e-01 6.3577722775107661e+00 1.0635308819068076e+01 1.1701716127813238e+01 1 4 1
45 1 1 5.8970000000000000e-01 5.5171863791440270e+00 7.6053204828154932e+00 1.0763418797731449e+01 2 4 7
111 1 1 5.8970000000000000e-01 5.0784935543647967e+00 1.1572649856154259e+01 1.0184035753722634e+01 0 5 -4
196 1 2 -1.1794000000000000e+00 4.8085155626496192e+00 1.2034466713473059e+01 1.3910410753839315e+01 -7 -3 1
85 1 2 -1.1794000000000000e+00 6.1293524800913417e+00 1.0167274193666477e+01 1.2504688704296685e+01 1 4 1
28 1 2 -1.1794000000000000e+00 1.2625249558648786e+00 8.7529055072046091e+00 1.3338258937706453e+01 -3 1 -3
253 1 2 -1.1794000000000000e+00 6.0899872461424707e+00 7.9382870296988033e+00 1.4316434320403225e+01 2 -2 2
87 1 1 5.8970000000000000e-01 5.6596207955683075e+00 1.0812369869249288e+01 1.3033090142157551e+01 1 4 1
210 1 1 5.8970000000000000e-01 3.4766384511643529e+00 1.2511240472189595e+01 1.1395289395916588e+01 0 -2 4
255 1 1 5.8970000000000000e-01 6.0336407027954762e+00 8.5945599838726032e+00 1.3622069556615525e+01 2 -2 2
1 1 2 -1.1794000000000000e+00 6.8416787473563820e+00 1.2025107233052440e+01 1.0242113004322066e+01 -2 -1 -2
208 1 2 -1.1794000000000000e+00 2.8818292125705667e+00 1.3106170055483126e+01 1.1851644188138028e+01 0 -2 4
98 1 1 5.8970000000000000e-01 7.2599990864718462e+00 8.8976293848401014e+00 9.5593567007644058e+00 -1 -3 -4
30 1 1 5.8970000000000000e-01 1.0909443688776670e+00 7.8171289929911829e+00 1.3233963207658311e+01 -3 1 -3
43 1 2 -1.1794000000000000e+00 5.8223442651145936e+00 8.0484535906839305e+00 9.9718796462700787e+00 2 4 7
218 1 1 5.8970000000000000e-01 2.2318837702690182e+00 1.3197194936683298e+01 1.3788430200116478e+01 -5 -2 3
148 1 2 -1.1794000000000000e+00 3.5645515970642010e+00 9.3021208832004820e+00 1.1820865573706181e+01 -1 2 1
150 1 1 5.8970000000000000e-01 4.4429716497102261e+00 9.6658823743750286e+00 1.1930637429263809e+01 -1 2 1
197 1 1 5.8970000000000000e-01 4.0123632644130014e+00 1.1821273154437479e+01 1.4396927832915917e+01 -7 -3 1
2 1 1 5.8970000000000000e-01 7.1980456947467699e+00 1.2778509469904288e+01 9.7715575900045053e+00 -2 -1 -2
149 1 1 5.8970000000000000e-01 3.3643201603876722e+00 9.4339185619495378e+00 1.0894296691177590e+01 -1 2 1
29 1 1 5.8970000000000000e-01 2.0804945299836808e+00 8.9011992130326227e+00 1.2863971229483758e+01 -3 1 -3
209 1 1 5.8970000000000000e-01 2.0843543899461365e+00 1.3100782158824684e+01 1.1322475648006369e+01 0 -2 4
199 1 2 -1.1794000000000000e+00 1.5065003072940408e+00 8.3652322451321997e+00 9.4131764902836697e+00 1 3 5
44 1 1 5.8970000000000000e-01 5.3807504070045837e+00 7.5919388349304517e+00 9.2559143529433587e+00 2 4 7
101 1 1 5.8970000000000000e-01 4.0035528496844819e-01 1.4234337560989854e+01 1.0766451031275448e+01 2 1 2
200 1 1 5.8970000000000000e-01 1.6063277777532778e+00 9.0060910185162637e+00 8.7093795545213197e+00 1 3 5
110 1 1 5.8970000000000000e-01 4.0329048934845062e+00 1.1751127450542629e+01 9.1041284259718545e+00 0 5 -4
109 1 2 -1.1794000000000000e+00 4.1360831367943245e+00 1.1517489301587831e+01 1.0026496517400517e+01 0 5 -4
3 1 1 5.8970000000000000e-01 7.2477641323177151e+00 1.1266474002567026e+01 9.8230981038119687e+00 -2 -1 -2
201 1 1 5.8970000000000000e-01 5.6956341878230099e-01 8.3673103899152910e+00 9.6084796105749835e+00 1 3 5
198 1 1 5.8970000000000000e-01 5.0278144325294960e+00 1.2924062974362220e+01 1.4187042085733976e+01 -7 -3 1
26 1 1 5.8970000000000000e-01 1.8318989969209838e+00 1.0910273955353039e+01 7.6016810500921155e+00 1 -3 -2
190 1 2 -1.1794000000000000e+00 1.1092220570551852e+01 6.8366829353672385e+00 4.2807874009537139e+00 -1 -1 1
142 1 2 -1.1794000000000000e+00 8.7800103897096928e+00 7.0138059014301408e+00 8.4285103164610831e-01 2 4 4
120 1 1 5.8970000000000000e-01 9.8077236907178822e+00 3.8025687286001797e+00 5.4135266794886920e+00 -4 -4 -5
56 1 1 5.8970000000000000e-01 7.7368474070390123e+00 1.5098962541199077e+00 5.2650883900145318e-01 -6 6 0
62 1 1 5.8970000000000000e-01 1.0580668573923118e+01 6.4487597004185400e+00 6.3754940535013906e+00 7 0 2
192 1 1 5.8970000000000000e-01 1.0212961116330643e+01 7.1648623615793534e+00 4.0930068078851658e+00 -1 -1 1
283 1 2 -1.1794000000000000e+00 1.2839820351507537e+01 4.9492577660938020e+00 2.8333178986020897e+00 1 -1 7
285 1 1 5.8970000000000000e-01 1.2591020941548752e+01 5.2068395948812638e+00 1.9457632498369133e+00 1 -1 7
284 1 1 5.8970000000000000e-01 1.2367935432478516e+01 5.5583060916574611e+00 3.4011035803513487e+00 1 -1 7
232 1 2 -1.1794000000000000e+00 9.0203900564094592e+00 1.9121282459808160e+00 5.7829204692044565e+00 -1 1 -4
48 1 1 5.8970000000000000e-01 9.7389190031363650e+00 3.6120409984160629e-01 2.8648808818083373e+00 5 2 0
189 1 1 5.8970000000000000e-01 1.1840717508571165e+01 1.6518442482423907e+00 3.5459118204848390e+00 0 2 -3
61 1 2 -1.1794000000000000e+00 1.0273867163359867e+01 6.7749209585661827e+00 7.2213586175312106e+00 7 0 2
154 1 2 -1.1794000000000000e+00 1.3942837530185960e+01 6.3523108820755594e+00 6.6486779307270982e+00 0 0 8
156 1 1 5.8970000000000000e-01 1.4105975995950486e+01 5.7046305299237732e+00 7.3341988754453968e+00 0 0 8
84 1 1 5.8970000000000000e-01 1.4505761186449293e+01 5.2754204563802016e+00 3.6430952700786099e+00 -2 3 1
234 1 1 5.8970000000000000e-01 9.5750833329409772e+00 1.4308523201408845e+00 5.1691721536106083e+00 -1 1 -4
188 1 1 5.8970000000000000e-01 1.2693059913656697e+01 2.8792236159753539e+00 3.3043417757250571e+00 0 2 -3
187 1 2 -1.1794000000000000e+00 1.2734499518361293e+01 1.9822006121686773e+00 3.6354427946141339e+00 0 2 -3
57 1 1 5.8970000000000000e-01 7.9165030087137618e+00 3.0113290484975641e+00 5.9528650209712297e-01 -6 6 0
118 1 2 -1.1794000000000000e+00 1.0522351861167143e+01 4.4389450521074956e+00 5.3954932165711025e+00 -4 -4 -5
215 1 1 5.8970000000000000e-01 1.4447631664478539e+01 1.3447871962496332e+00 3.1494152207434585e+00 3 1 -3
108 1 1 5.8970000000000000e-01 1.3066837998681491e+01 2.4652716230405729e+00 6.6642070901614696e+00 0 -1 1
123 1 1 5.8970000000000000e-01 1.0158178196959517e+01 4.3086420714424403e+00 1.4724074478094595e+00 -5 -2 4
121 1 2 -1.1794000000000000e+00 9.2314373940624339e+00 4.4606643191907080e+00 1.6569394573988356e+00 -5 -2 4
233 1 1 5.8970000000000000e-01 8.7157511704325863e+00 2.6714866443708010e+00 5.2862854067955833e+00 -1 1 -4
191 1 1 5.8970000000000000e-01 1.0958012788465014e+01 5.9247381064770233e+00 4.5383937488793249e+00 -1 -1 1
119 1 1 5.8970000000000000e-01 1.1226022668418178e+01 4.0237467454242015e+00 5.8939548737653880e+00 -4 -4 -5
106 1 2 -1.1794000000000000e+00 1.2590053505977545e+01 3.2467948089483172e+00 6.9433044324361743e+00 0 -1 1
122 1 1 5.8970000000000000e-01 9.0542745799416355e+00 5.3292665410127551e+00 1.2961938476684931e+00 -5 -2 4
72 1 1 5.8970000000000000e-01 1.3345833410891405e+01 1.0634550096032185e+00 5.2333124444379786e+00 0 2 0
70 1 2 -1.1794000000000000e+00 1.3630365273443708e+01 8.4869460356595572e-01 6.1215264838150407e+00 0 2 0
124 1 2 -1.1794000000000000e+00 7.7048569409498233e+00 3.3859871025275177e+00 3.7638983626115419e+00 0 -5 3
107 1 1 5.8970000000000000e-01 1.3242542991549653e+01 3.7742884867245534e+00 7.4037402328003283e+00 0 -1 1
126 1 1 5.8970000000000000e-01 8.0772658060442595e+00 3.7759040981565084e+00 2.9731569865351783e+00 0 -5 3
162 1 1 5.8970000000000000e-01 8.4579668004026001e+00 6.3741578530906757e+00 7.3232834318320137e+00 3 -1 -4
46 1 2 -1.1794000000000000e+00 1.0236059850022642e+01 5.9580903474250169e-01 3.6483378903897523e+00 5 2 0
160 1 2 -1.1794000000000000e+00 7.5390830711641481e+00 6.1105005919012791e+00 7.2771241391074630e+00 3 -1 -4
143 1 1 5.8970000000000000e-01 7.9269476355548143e+00 7.4194203766687776e+00 6.8865387101025732e-01 2 4 4
71 1 1 5.8970000000000000e-01 1.2882948566159472e+01 3.9392284214367201e-01 6.5095515928468570e+00 0 2 0
224 1 1 5.8970000000000000e-01 1.4469427608002688e+01 5.3606241152132510e+00 1.2009621694121908e+01 2 3 0
88 1 2 -1.1794000000000000e+00 9.5629914086292853e+00 5.8960423628493936e+00 1.2720506243490332e+01 3 -3 1
153 1 1 5.8970000000000000e-01 9.2291698428978357e+00 2.9624855038378226e+00 1.1274269770765295e+01 1 -1 -7
115 1 2 -1.1794000000000000e+00 1.1590279743049283e+01 2.1478552472830010e+00 1.3623958388915943e+01 -3 0 -1
262 1 2 -1.1794000000000000e+00 1.3628355884102644e+01 2.7443883543396925e+00 1.1785223037419856e+01 -2 3 -3
151 1 2 -1.1794000000000000e+00 9.4063478314134947e+00 3.8262218982839902e+00 1.0901959240795010e+01 1 -1 -7
116 1 1 5.8970000000000000e-01 1.2333947266512412e+01 2.1789637047853185e+00 1.3022307960885986e+01 -3 0 -1
17 1 1 5.8970000000000000e-01 1.2250458118722021e+01 3.0148655557472308e+00 8.7067446241758955e+00 0 -2 0
140 1 1 5.8970000000000000e-01 7.9970802549227269e+00 4.0227528001857884e+00 9.8656726872050378e+00 1 0 4
103 1 2 -1.1794000000000000e+00 1.4507862150808785e+01 4.3947842208693988e+00 8.3654641518326116e+00 -4 -2 3
89 1 1 5.8970000000000000e-01 9.6127028891217137e+00 6.5436600096360467e+00 1.2017573930853832e+01 3 -3 1
40 1 2 -1.1794000000000000e+00 1.1603801766731273e+01 4.9490007491739831e+00 1.4404935342521679e+01 -1 5 4
230 1 1 5.8970000000000000e-01 1.0017335279975384e+01 1.8221769495508811e+00 1.2972064159655321e+01 4 0 1
41 1 1 5.8970000000000000e-01 1.2406788745131671e+01 5.0313438960283747e+00 1.3890690394126134e+01 -1 5 4
18 1 1 5.8970000000000000e-01 1.2612409736933964e+01 2.8206567029919274e+00 1.0163669617604052e+01 0 -2 0
144 1 1 5.8970000000000000e-01 9.0064465535157829e+00 6.6061201336097568e+00 1.4354321615154511e+01 2 4 3
264 1 1 5.8970000000000000e-01 1.4365776433167555e+01 2.4001648067608565e+00 1.1281443227374810e+01 -2 3 -3
288 1 1 5.8970000000000000e-01 1.2161740220526646e+01 5.4874172914946326e+00 9.3625173564023623e+00 -3 4 -2
90 1 1 5.8970000000000000e-01 9.5592683575596986e+00 5.0519757153285587e+00 1.2269302919102286e+01 3 -3 1
287 1 1 5.8970000000000000e-01 1.0894903831233716e+01 6.1729599911722346e+00 8.8971766851790743e+00 -3 4 -2
286 1 2 -1.1794000000000000e+00 1.1441316963801340e+01 6.0367864783685601e+00 9.6710663392130467e+00 -3 4 -2
263 1 1 5.8970000000000000e-01 1.3957069391277795e+01 3.5586763168990396e+00 1.2165853534730806e+01 -2 3 -3
16 1 2 -1.1794000000000000e+00 1.1862675634932934e+01 2.8910913604411035e+00 9.5729621959324422e+00 0 -2 0
42 1 1 5.8970000000000000e-01 1.0939346782983211e+01 5.4027801841144836e+00 1.3886676052680992e+01 -1 5 4
117 1 1 5.8970000000000000e-01 1.1472478584364465e+01 3.0545403151598842e+00 1.3906947254320141e+01 -3 0 -1
152 1 1 5.8970000000000000e-01 1.0266675315764092e+01 3.7388695532380241e+00 1.0491823500005117e+01 1 -1 -7
231 1 1 5.8970000000000000e-01 8.5063880922591704e+00 1.7311632611476788e+00 1.2959891083958029e+01 4 0 1
75 1 1 5.8970000000000000e-01 1.0281736699002526e+01 2.2664497202644789e+00 8.7254480261965224e+00 3 1 7
229 1 2 -1.1794000000000000e+00 9.2813373209342487e+00 1.5243268164999726e+00 1.2437657103616617e+01 4 0 1
73 1 2 -1.1794000000000000e+00 9.8218434260543805e+00 1.4639375643269390e+00 8.4795218627916942e+00 3 1 7
223 1 2 -1.1794000000000000e+00 1.4025295157257831e+01 5.2346884909620490e+00 1.2848001204982598e+01 2 3 0
74 1 1 5.8970000000000000e-01 9.4129085726242625e+00 1.6697065443953907e+00 7.6390117730907479e+00 3 1 7
273 1 1 5.8970000000000000e-01 1.1606804945702512e+01 4.2483433972440610e-01 1.4182716928403051e+01 -5 -1 2
105 1 1 5.8970000000000000e-01 1.4629226193033055e+01 4.8409444858252400e+00 9.2034789337778573e+00 -4 -2 3
128 1 1 5.8970000000000000e-01 8.6382553367834589e+00 4.0820073465286200e-01 8.8323069970515409e+00 -1 -9 -1
179 1 1 5.8970000000000000e-01 1.0559211946430164e+01 1.1064250988955640e+01 3.5598539832471547e+00 8 -4 2
178 1 2 -1.1794000000000000e+00 9.8793817443336618e+00 1.0433631139456576e+01 3.3227028182090055e+00 8 -4 2
280 1 2 -1.1794000000000000e+00 1.0513544426907133e+01 9.1423612836445738e+00 1.0230561388093995e+00 -2 -3 1
180 1 1 5.8970000000000000e-01 1.0188430300135156e+01 1.0043690326626582e+01 2.5051193851002549e+00 8 -4 2
63 1 1 5.8970000000000000e-01 1.0248961779313577e+01 7.7259757448633808e+00 7.1171094204373446e+00 7 0 2
241 1 2 -1.1794000000000000e+00 1.3277347402627992e+01 1.0905499767184658e+01 6.0918748087763817e+00 2 0 0
133 1 2 -1.1794000000000000e+00 8.6108999690127277e+00 8.6416575905521640e+00 4.9875796877843230e+00 4 0 3
248 1 1 5.8970000000000000e-01 8.3491352473563722e+00 1.3756925935971967e+01 1.4485463416633002e+00 3 3 2
272 1 1 5.8970000000000000e-01 1.2205077645124248e+01 1.3479204146991325e+01 3.4733272963074485e-01 -5 -2 3
243 1 1 5.8970000000000000e-01 1.3021291902774385e+01 1.0101140222377873e+01 5.6408387126442152e+00 2 0 0
7 1 2 -1.1794000000000000e+00 1.1645765933413990e+01 1.2730932604346282e+01 4.2239909573606154e+00 -5 6 -1
134 1 1 5.8970000000000000e-01 8.9275860974049586e+00 9.1963686355844736e+00 4.2747969048263350e+00 4 0 3
15 1 1 5.8970000000000000e-01 1.2225755882309704e+01 8.2554868779894974e+00 1.2955227926118054e+00 -3 -5 -3
281 1 1 5.8970000000000000e-01 9.9522154675089176e+00 8.3766388290072022e+00 9.0233668259847988e-01 -2 -3 1
277 1 2 -1.1794000000000000e+00 9.6892200300981344e+00 1.2301638708183932e+01 6.2453488658738765e+00 3 -2 -5
94 1 2 -1.1794000000000000e+00 1.3881488037800983e+01 1.2960395726009752e+01 8.0817413095966262e-01 -5 1 -1
206 1 1 5.8970000000000000e-01 8.0374363545172152e+00 1.1651717079732647e+01 7.6325758920112963e-01 5 -3 1
249 1 1 5.8970000000000000e-01 9.5614183518702092e+00 1.4357600113085480e+01 7.6965039786206979e-01 3 3 2
135 1 1 5.8970000000000000e-01 8.9332922620965753e+00 9.0654758790139400e+00 5.7828681523671630e+00 4 0 3
278 1 1 5.8970000000000000e-01 8.7685195769667725e+00 1.2559505327827742e+01 6.2878676378553395e+00 3 -2 -5
47 1 1 5.8970000000000000e-01 1.0744789335587971e+01 1.4158767540964018e+01 3.8535079859981303e+00 5 1 0
205 1 2 -1.1794000000000000e+00 8.0794274542954696e+00 1.2009796237145697e+01 1.6498731459091001e+00 5 -3 1
9 1 1 5.8970000000000000e-01 1.1082109419554921e+01 1.2401853548971944e+01 4.9240085932931965e+00 -5 6 -1
10 1 2 -1.1794000000000000e+00 1.3013432652389287e+01 8.4251184734212430e+00 5.3948505329738694e+00 0 -1 1
239 1 1 5.8970000000000000e-01 1.0933586320366695e+01 1.3295866716101777e+01 7.0418327008794561e+00 -6 1 2
279 1 1 5.8970000000000000e-01 9.7022065556735697e+00 1.1403107869392306e+01 6.5746951342228144e+00 3 -2 -5
8 1 1 5.8970000000000000e-01 1.2528532009841072e+01 1.2466446598436532e+01 4.4823842085003900e+00 -5 6 -1
242 1 1 5.8970000000000000e-01 1.2808857174932363e+01 1.0872523564201762e+01 6.9258167348011836e+00 2 0 0
207 1 1 5.8970000000000000e-01 8.8738202149541650e+00 1.1629756366202896e+01 2.0247855902530008e+00 5 -3 1
252 1 1 5.8970000000000000e-01 1.4436620808940036e+01 1.2410034256771176e+01 2.5199540284384567e+00 -3 0 -3
12 1 1 5.8970000000000000e-01 1.3298006140605340e+01 7.7765374214998717e+00 6.0385550749474746e+00 0 -1 1
268 1 2 -1.1794000000000000e+00 9.7482519545056956e+00 9.7209093309908106e+00 7.4635099286657658e+00 -4 1 7
14 1 1 5.8970000000000000e-01 1.3602338493640632e+01 7.7628871390514611e+00 1.6875213315938198e+00 -3 -5 -3
247 1 2 -1.1794000000000000e+00 8.8156702865169532e+00 1.4583474048970988e+01 1.3254173373455460e+00 3 3 2
13 1 2 -1.1794000000000000e+00 1.2916599504538526e+01 7.6487949817615304e+00 1.0296700402352639e+00 -3 -5 -3
11 1 1 5.8970000000000000e-01 1.2376550708711093e+01 7.9608603181441184e+00 4.8518564786549829e+00 0 -1 1
127 1 2 -1.1794000000000000e+00 8.0203159890662423e+00 1.4035283930221603e+01 8.9569607871306491e+00 -1 -10 -1
102 1 1 5.8970000000000000e-01 1.3610714763456865e+01 1.3237847912983728e+01 1.0842798449820625e+01 1 1 2
138 1 1 5.8970000000000000e-01 1.2081143286653516e+01 1.1005804931950031e+01 9.1430957102129415e+00 4 -1 -1
33 1 1 5.8970000000000000e-01 1.1328563054080981e+01 1.2870357925809147e+01 1.0838823891501052e+01 -4 -2 -2
49 1 2 -1.1794000000000000e+00 1.3254446927359481e+01 8.3141762045387111e+00 1.0187932181256976e+01 -2 0 -2
269 1 1 5.8970000000000000e-01 9.1021108548388749e+00 9.7051195323198289e+00 8.1693747224792528e+00 -4 1 7
166 1 2 -1.1794000000000000e+00 1.2478710668798257e+01 8.7301043537229397e+00 1.2742581196797483e+01 4 2 4
194 1 1 5.8970000000000000e-01 1.0514022005137083e+01 8.5110220257573346e+00 1.1766440177309510e+01 -1 2 0
137 1 1 5.8970000000000000e-01 1.2707419775914316e+01 9.6302512951720782e+00 9.0593487087484288e+00 4 -1 -1
99 1 1 5.8970000000000000e-01 8.5892217924490257e+00 9.3046652305780295e+00 1.0158346308329250e+01 -1 -3 -4
168 1 1 5.8970000000000000e-01 1.2567145623406427e+01 8.1249775403789428e+00 1.3478793137348385e+01 4 2 4
193 1 2 -1.1794000000000000e+00 9.7629129253589237e+00 8.2792924018880214e+00 1.1220411853852978e+01 -1 2 0
271 1 2 -1.1794000000000000e+00 1.1370509733523708e+01 1.3889941216788712e+01 1.4469139645718840e+01 -5 -2 2
158 1 1 5.8970000000000000e-01 9.8397377034943663e+00 1.4151295299760436e+01 1.1916267595127524e+01 -6 -2 -1
235 1 2 -1.1794000000000000e+00 8.7175034488323444e+00 1.1042177424483228e+01 1.3440281094180355e+01 2 2 -3
237 1 1 5.8970000000000000e-01 7.9005843828293214e+00 1.0638877051671479e+01 1.3147040356948802e+01 2 2 -3
182 1 1 5.8970000000000000e-01 1.4246590775445069e+01 1.1719077217407571e+01 1.2202664896253491e+01 5 -2 3
236 1 1 5.8970000000000000e-01 8.9369257521940266e+00 1.1668544259306850e+01 1.2750707377600175e+01 2 2 -3
167 1 1 5.8970000000000000e-01 1.2758958923224782e+01 9.5758510366446252e+00 1.3092132288205747e+01 4 2 4
282 1 1 5.8970000000000000e-01 1.0367190350181556e+01 9.6729998747850043e+00 1.4587350375434498e+01 -2 -3 0
136 1 2 -1.1794000000000000e+00 1.2163286549482509e+01 1.0245339402314288e+01 8.5678118407632589e+00 4 -1 -1
157 1 2 -1.1794000000000000e+00 1.0136266289461359e+01 1.3248394534133006e+01 1.2029642733382341e+01 -6 -2 -1
31 1 2 -1.1794000000000000e+00 1.2012491186860929e+01 1.2747315238935935e+01 1.0180717563006377e+01 -4 -2 -2
32 1 1 5.8970000000000000e-01 1.1742323466760515e+01 1.3300133698907839e+01 9.4476408777919136e+00 -4 -2 -2